# vtk DataFile Version 3.0
#This file was generated by the deal.II library on 2024/1/25 at 18:32:26
ASCII
DATASET UNSTRUCTURED_GRID

POINTS 4096 double
-1 -1 0
-0.9375 -1 0
-1 -0.9375 0
-0.9375 -0.9375 0
-0.9375 -1 0
-0.875 -1 0
-0.9375 -0.9375 0
-0.875 -0.9375 0
-1 -0.9375 0
-0.9375 -0.9375 0
-1 -0.875 0
-0.9375 -0.875 0
-0.9375 -0.9375 0
-0.875 -0.9375 0
-0.9375 -0.875 0
-0.875 -0.875 0
-0.875 -1 0
-0.8125 -1 0
-0.875 -0.9375 0
-0.8125 -0.9375 0
-0.8125 -1 0
-0.75 -1 0
-0.8125 -0.9375 0
-0.75 -0.9375 0
-0.875 -0.9375 0
-0.8125 -0.9375 0
-0.875 -0.875 0
-0.8125 -0.875 0
-0.8125 -0.9375 0
-0.75 -0.9375 0
-0.8125 -0.875 0
-0.75 -0.875 0
-1 -0.875 0
-0.9375 -0.875 0
-1 -0.8125 0
-0.9375 -0.8125 0
-0.9375 -0.875 0
-0.875 -0.875 0
-0.9375 -0.8125 0
-0.875 -0.8125 0
-1 -0.8125 0
-0.9375 -0.8125 0
-1 -0.75 0
-0.9375 -0.75 0
-0.9375 -0.8125 0
-0.875 -0.8125 0
-0.9375 -0.75 0
-0.875 -0.75 0
-0.875 -0.875 0
-0.8125 -0.875 0
-0.875 -0.8125 0
-0.8125 -0.8125 0
-0.8125 -0.875 0
-0.75 -0.875 0
-0.8125 -0.8125 0
-0.75 -0.8125 0
-0.875 -0.8125 0
-0.8125 -0.8125 0
-0.875 -0.75 0
-0.8125 -0.75 0
-0.8125 -0.8125 0
-0.75 -0.8125 0
-0.8125 -0.75 0
-0.75 -0.75 0
-0.75 -1 0
-0.6875 -1 0
-0.75 -0.9375 0
-0.6875 -0.9375 0
-0.6875 -1 0
-0.625 -1 0
-0.6875 -0.9375 0
-0.625 -0.9375 0
-0.75 -0.9375 0
-0.6875 -0.9375 0
-0.75 -0.875 0
-0.6875 -0.875 0
-0.6875 -0.9375 0
-0.625 -0.9375 0
-0.6875 -0.875 0
-0.625 -0.875 0
-0.625 -1 0
-0.5625 -1 0
-0.625 -0.9375 0
-0.5625 -0.9375 0
-0.5625 -1 0
-0.5 -1 0
-0.5625 -0.9375 0
-0.5 -0.9375 0
-0.625 -0.9375 0
-0.5625 -0.9375 0
-0.625 -0.875 0
-0.5625 -0.875 0
-0.5625 -0.9375 0
-0.5 -0.9375 0
-0.5625 -0.875 0
-0.5 -0.875 0
-0.75 -0.875 0
-0.6875 -0.875 0
-0.75 -0.8125 0
-0.6875 -0.8125 0
-0.6875 -0.875 0
-0.625 -0.875 0
-0.6875 -0.8125 0
-0.625 -0.8125 0
-0.75 -0.8125 0
-0.6875 -0.8125 0
-0.75 -0.75 0
-0.6875 -0.75 0
-0.6875 -0.8125 0
-0.625 -0.8125 0
-0.6875 -0.75 0
-0.625 -0.75 0
-0.625 -0.875 0
-0.5625 -0.875 0
-0.625 -0.8125 0
-0.5625 -0.8125 0
-0.5625 -0.875 0
-0.5 -0.875 0
-0.5625 -0.8125 0
-0.5 -0.8125 0
-0.625 -0.8125 0
-0.5625 -0.8125 0
-0.625 -0.75 0
-0.5625 -0.75 0
-0.5625 -0.8125 0
-0.5 -0.8125 0
-0.5625 -0.75 0
-0.5 -0.75 0
-1 -0.75 0
-0.9375 -0.75 0
-1 -0.6875 0
-0.9375 -0.6875 0
-0.9375 -0.75 0
-0.875 -0.75 0
-0.9375 -0.6875 0
-0.875 -0.6875 0
-1 -0.6875 0
-0.9375 -0.6875 0
-1 -0.625 0
-0.9375 -0.625 0
-0.9375 -0.6875 0
-0.875 -0.6875 0
-0.9375 -0.625 0
-0.875 -0.625 0
-0.875 -0.75 0
-0.8125 -0.75 0
-0.875 -0.6875 0
-0.8125 -0.6875 0
-0.8125 -0.75 0
-0.75 -0.75 0
-0.8125 -0.6875 0
-0.75 -0.6875 0
-0.875 -0.6875 0
-0.8125 -0.6875 0
-0.875 -0.625 0
-0.8125 -0.625 0
-0.8125 -0.6875 0
-0.75 -0.6875 0
-0.8125 -0.625 0
-0.75 -0.625 0
-1 -0.625 0
-0.9375 -0.625 0
-1 -0.5625 0
-0.9375 -0.5625 0
-0.9375 -0.625 0
-0.875 -0.625 0
-0.9375 -0.5625 0
-0.875 -0.5625 0
-1 -0.5625 0
-0.9375 -0.5625 0
-1 -0.5 0
-0.9375 -0.5 0
-0.9375 -0.5625 0
-0.875 -0.5625 0
-0.9375 -0.5 0
-0.875 -0.5 0
-0.875 -0.625 0
-0.8125 -0.625 0
-0.875 -0.5625 0
-0.8125 -0.5625 0
-0.8125 -0.625 0
-0.75 -0.625 0
-0.8125 -0.5625 0
-0.75 -0.5625 0
-0.875 -0.5625 0
-0.8125 -0.5625 0
-0.875 -0.5 0
-0.8125 -0.5 0
-0.8125 -0.5625 0
-0.75 -0.5625 0
-0.8125 -0.5 0
-0.75 -0.5 0
-0.75 -0.75 0
-0.6875 -0.75 0
-0.75 -0.6875 0
-0.6875 -0.6875 0
-0.6875 -0.75 0
-0.625 -0.75 0
-0.6875 -0.6875 0
-0.625 -0.6875 0
-0.75 -0.6875 0
-0.6875 -0.6875 0
-0.75 -0.625 0
-0.6875 -0.625 0
-0.6875 -0.6875 0
-0.625 -0.6875 0
-0.6875 -0.625 0
-0.625 -0.625 0
-0.625 -0.75 0
-0.5625 -0.75 0
-0.625 -0.6875 0
-0.5625 -0.6875 0
-0.5625 -0.75 0
-0.5 -0.75 0
-0.5625 -0.6875 0
-0.5 -0.6875 0
-0.625 -0.6875 0
-0.5625 -0.6875 0
-0.625 -0.625 0
-0.5625 -0.625 0
-0.5625 -0.6875 0
-0.5 -0.6875 0
-0.5625 -0.625 0
-0.5 -0.625 0
-0.75 -0.625 0
-0.6875 -0.625 0
-0.75 -0.5625 0
-0.6875 -0.5625 0
-0.6875 -0.625 0
-0.625 -0.625 0
-0.6875 -0.5625 0
-0.625 -0.5625 0
-0.75 -0.5625 0
-0.6875 -0.5625 0
-0.75 -0.5 0
-0.6875 -0.5 0
-0.6875 -0.5625 0
-0.625 -0.5625 0
-0.6875 -0.5 0
-0.625 -0.5 0
-0.625 -0.625 0
-0.5625 -0.625 0
-0.625 -0.5625 0
-0.5625 -0.5625 0
-0.5625 -0.625 0
-0.5 -0.625 0
-0.5625 -0.5625 0
-0.5 -0.5625 0
-0.625 -0.5625 0
-0.5625 -0.5625 0
-0.625 -0.5 0
-0.5625 -0.5 0
-0.5625 -0.5625 0
-0.5 -0.5625 0
-0.5625 -0.5 0
-0.5 -0.5 0
-0.5 -1 0
-0.4375 -1 0
-0.5 -0.9375 0
-0.4375 -0.9375 0
-0.4375 -1 0
-0.375 -1 0
-0.4375 -0.9375 0
-0.375 -0.9375 0
-0.5 -0.9375 0
-0.4375 -0.9375 0
-0.5 -0.875 0
-0.4375 -0.875 0
-0.4375 -0.9375 0
-0.375 -0.9375 0
-0.4375 -0.875 0
-0.375 -0.875 0
-0.375 -1 0
-0.3125 -1 0
-0.375 -0.9375 0
-0.3125 -0.9375 0
-0.3125 -1 0
-0.25 -1 0
-0.3125 -0.9375 0
-0.25 -0.9375 0
-0.375 -0.9375 0
-0.3125 -0.9375 0
-0.375 -0.875 0
-0.3125 -0.875 0
-0.3125 -0.9375 0
-0.25 -0.9375 0
-0.3125 -0.875 0
-0.25 -0.875 0
-0.5 -0.875 0
-0.4375 -0.875 0
-0.5 -0.8125 0
-0.4375 -0.8125 0
-0.4375 -0.875 0
-0.375 -0.875 0
-0.4375 -0.8125 0
-0.375 -0.8125 0
-0.5 -0.8125 0
-0.4375 -0.8125 0
-0.5 -0.75 0
-0.4375 -0.75 0
-0.4375 -0.8125 0
-0.375 -0.8125 0
-0.4375 -0.75 0
-0.375 -0.75 0
-0.375 -0.875 0
-0.3125 -0.875 0
-0.375 -0.8125 0
-0.3125 -0.8125 0
-0.3125 -0.875 0
-0.25 -0.875 0
-0.3125 -0.8125 0
-0.25 -0.8125 0
-0.375 -0.8125 0
-0.3125 -0.8125 0
-0.375 -0.75 0
-0.3125 -0.75 0
-0.3125 -0.8125 0
-0.25 -0.8125 0
-0.3125 -0.75 0
-0.25 -0.75 0
-0.25 -1 0
-0.1875 -1 0
-0.25 -0.9375 0
-0.1875 -0.9375 0
-0.1875 -1 0
-0.125 -1 0
-0.1875 -0.9375 0
-0.125 -0.9375 0
-0.25 -0.9375 0
-0.1875 -0.9375 0
-0.25 -0.875 0
-0.1875 -0.875 0
-0.1875 -0.9375 0
-0.125 -0.9375 0
-0.1875 -0.875 0
-0.125 -0.875 0
-0.125 -1 0
-0.0625 -1 0
-0.125 -0.9375 0
-0.0625 -0.9375 0
-0.0625 -1 0
0 -1 0
-0.0625 -0.9375 0
0 -0.9375 0
-0.125 -0.9375 0
-0.0625 -0.9375 0
-0.125 -0.875 0
-0.0625 -0.875 0
-0.0625 -0.9375 0
0 -0.9375 0
-0.0625 -0.875 0
0 -0.875 0
-0.25 -0.875 0
-0.1875 -0.875 0
-0.25 -0.8125 0
-0.1875 -0.8125 0
-0.1875 -0.875 0
-0.125 -0.875 0
-0.1875 -0.8125 0
-0.125 -0.8125 0
-0.25 -0.8125 0
-0.1875 -0.8125 0
-0.25 -0.75 0
-0.1875 -0.75 0
-0.1875 -0.8125 0
-0.125 -0.8125 0
-0.1875 -0.75 0
-0.125 -0.75 0
-0.125 -0.875 0
-0.0625 -0.875 0
-0.125 -0.8125 0
-0.0625 -0.8125 0
-0.0625 -0.875 0
0 -0.875 0
-0.0625 -0.8125 0
0 -0.8125 0
-0.125 -0.8125 0
-0.0625 -0.8125 0
-0.125 -0.75 0
-0.0625 -0.75 0
-0.0625 -0.8125 0
0 -0.8125 0
-0.0625 -0.75 0
0 -0.75 0
-0.5 -0.75 0
-0.4375 -0.75 0
-0.5 -0.6875 0
-0.4375 -0.6875 0
-0.4375 -0.75 0
-0.375 -0.75 0
-0.4375 -0.6875 0
-0.375 -0.6875 0
-0.5 -0.6875 0
-0.4375 -0.6875 0
-0.5 -0.625 0
-0.4375 -0.625 0
-0.4375 -0.6875 0
-0.375 -0.6875 0
-0.4375 -0.625 0
-0.375 -0.625 0
-0.375 -0.75 0
-0.3125 -0.75 0
-0.375 -0.6875 0
-0.3125 -0.6875 0
-0.3125 -0.75 0
-0.25 -0.75 0
-0.3125 -0.6875 0
-0.25 -0.6875 0
-0.375 -0.6875 0
-0.3125 -0.6875 0
-0.375 -0.625 0
-0.3125 -0.625 0
-0.3125 -0.6875 0
-0.25 -0.6875 0
-0.3125 -0.625 0
-0.25 -0.625 0
-0.5 -0.625 0
-0.4375 -0.625 0
-0.5 -0.5625 0
-0.4375 -0.5625 0
-0.4375 -0.625 0
-0.375 -0.625 0
-0.4375 -0.5625 0
-0.375 -0.5625 0
-0.5 -0.5625 0
-0.4375 -0.5625 0
-0.5 -0.5 0
-0.4375 -0.5 0
-0.4375 -0.5625 0
-0.375 -0.5625 0
-0.4375 -0.5 0
-0.375 -0.5 0
-0.375 -0.625 0
-0.3125 -0.625 0
-0.375 -0.5625 0
-0.3125 -0.5625 0
-0.3125 -0.625 0
-0.25 -0.625 0
-0.3125 -0.5625 0
-0.25 -0.5625 0
-0.375 -0.5625 0
-0.3125 -0.5625 0
-0.375 -0.5 0
-0.3125 -0.5 0
-0.3125 -0.5625 0
-0.25 -0.5625 0
-0.3125 -0.5 0
-0.25 -0.5 0
-0.25 -0.75 0
-0.1875 -0.75 0
-0.25 -0.6875 0
-0.1875 -0.6875 0
-0.1875 -0.75 0
-0.125 -0.75 0
-0.1875 -0.6875 0
-0.125 -0.6875 0
-0.25 -0.6875 0
-0.1875 -0.6875 0
-0.25 -0.625 0
-0.1875 -0.625 0
-0.1875 -0.6875 0
-0.125 -0.6875 0
-0.1875 -0.625 0
-0.125 -0.625 0
-0.125 -0.75 0
-0.0625 -0.75 0
-0.125 -0.6875 0
-0.0625 -0.6875 0
-0.0625 -0.75 0
0 -0.75 0
-0.0625 -0.6875 0
0 -0.6875 0
-0.125 -0.6875 0
-0.0625 -0.6875 0
-0.125 -0.625 0
-0.0625 -0.625 0
-0.0625 -0.6875 0
0 -0.6875 0
-0.0625 -0.625 0
0 -0.625 0
-0.25 -0.625 0
-0.1875 -0.625 0
-0.25 -0.5625 0
-0.1875 -0.5625 0
-0.1875 -0.625 0
-0.125 -0.625 0
-0.1875 -0.5625 0
-0.125 -0.5625 0
-0.25 -0.5625 0
-0.1875 -0.5625 0
-0.25 -0.5 0
-0.1875 -0.5 0
-0.1875 -0.5625 0
-0.125 -0.5625 0
-0.1875 -0.5 0
-0.125 -0.5 0
-0.125 -0.625 0
-0.0625 -0.625 0
-0.125 -0.5625 0
-0.0625 -0.5625 0
-0.0625 -0.625 0
0 -0.625 0
-0.0625 -0.5625 0
0 -0.5625 0
-0.125 -0.5625 0
-0.0625 -0.5625 0
-0.125 -0.5 0
-0.0625 -0.5 0
-0.0625 -0.5625 0
0 -0.5625 0
-0.0625 -0.5 0
0 -0.5 0
-1 -0.5 0
-0.9375 -0.5 0
-1 -0.4375 0
-0.9375 -0.4375 0
-0.9375 -0.5 0
-0.875 -0.5 0
-0.9375 -0.4375 0
-0.875 -0.4375 0
-1 -0.4375 0
-0.9375 -0.4375 0
-1 -0.375 0
-0.9375 -0.375 0
-0.9375 -0.4375 0
-0.875 -0.4375 0
-0.9375 -0.375 0
-0.875 -0.375 0
-0.875 -0.5 0
-0.8125 -0.5 0
-0.875 -0.4375 0
-0.8125 -0.4375 0
-0.8125 -0.5 0
-0.75 -0.5 0
-0.8125 -0.4375 0
-0.75 -0.4375 0
-0.875 -0.4375 0
-0.8125 -0.4375 0
-0.875 -0.375 0
-0.8125 -0.375 0
-0.8125 -0.4375 0
-0.75 -0.4375 0
-0.8125 -0.375 0
-0.75 -0.375 0
-1 -0.375 0
-0.9375 -0.375 0
-1 -0.3125 0
-0.9375 -0.3125 0
-0.9375 -0.375 0
-0.875 -0.375 0
-0.9375 -0.3125 0
-0.875 -0.3125 0
-1 -0.3125 0
-0.9375 -0.3125 0
-1 -0.25 0
-0.9375 -0.25 0
-0.9375 -0.3125 0
-0.875 -0.3125 0
-0.9375 -0.25 0
-0.875 -0.25 0
-0.875 -0.375 0
-0.8125 -0.375 0
-0.875 -0.3125 0
-0.8125 -0.3125 0
-0.8125 -0.375 0
-0.75 -0.375 0
-0.8125 -0.3125 0
-0.75 -0.3125 0
-0.875 -0.3125 0
-0.8125 -0.3125 0
-0.875 -0.25 0
-0.8125 -0.25 0
-0.8125 -0.3125 0
-0.75 -0.3125 0
-0.8125 -0.25 0
-0.75 -0.25 0
-0.75 -0.5 0
-0.6875 -0.5 0
-0.75 -0.4375 0
-0.6875 -0.4375 0
-0.6875 -0.5 0
-0.625 -0.5 0
-0.6875 -0.4375 0
-0.625 -0.4375 0
-0.75 -0.4375 0
-0.6875 -0.4375 0
-0.75 -0.375 0
-0.6875 -0.375 0
-0.6875 -0.4375 0
-0.625 -0.4375 0
-0.6875 -0.375 0
-0.625 -0.375 0
-0.625 -0.5 0
-0.5625 -0.5 0
-0.625 -0.4375 0
-0.5625 -0.4375 0
-0.5625 -0.5 0
-0.5 -0.5 0
-0.5625 -0.4375 0
-0.5 -0.4375 0
-0.625 -0.4375 0
-0.5625 -0.4375 0
-0.625 -0.375 0
-0.5625 -0.375 0
-0.5625 -0.4375 0
-0.5 -0.4375 0
-0.5625 -0.375 0
-0.5 -0.375 0
-0.75 -0.375 0
-0.6875 -0.375 0
-0.75 -0.3125 0
-0.6875 -0.3125 0
-0.6875 -0.375 0
-0.625 -0.375 0
-0.6875 -0.3125 0
[...]
POINT_DATA 4096
SCALARS u_vec double 1
LOOKUP_TABLE default
0 0 0 0.49717 0 0 0.49717 0.877018 0 0.49717 0 0.88185 0.49717 0.877018 0.88185 1.35318 0 0 0.877018 0.965344 0 0 0.965344 1.27486 0.877018 0.965344 1.35318 1.92094 0.965344 1.27486 1.92094 2.14582 0 0.88185 0 0.96214 0.88185 1.35318 0.96214 1.9193 0 0.96214 0 1.27081 0.96214 1.9193 1.27081 2.158 1.35318 1.92094 1.9193 2.56702 1.92094 2.14582 2.56702 2.95988 1.9193 2.56702 2.158 2.95338 2.56702 2.95988 2.95338 3.4462 0 0 1.27486 1.32878 0 0 1.32878 1.50225 1.27486 1.32878 2.14582 2.39749 1.32878 1.50225 2.39749 2.32423 0 0 1.50225 1.54059 0 0 1.54059 1.32335 1.50225 1.54059 2.32423 2.7067 1.54059 1.32335 2.7067 2.8095 2.14582 2.39749 2.95988 3.37771 2.39749 2.32423 3.37771 3.42383 2.95988 3.37771 3.4462 3.81345 3.37771 3.42383 3.81345 4.04991 2.32423 2.7067 3.42383 3.51808 2.7067 2.8095 3.51808 3.72651 3.42383 3.51808 4.04991 4.21345 3.51808 3.72651 4.21345 4.31844 0 1.27081 0 1.32894 1.27081 2.158 1.32894 2.4057 0 1.32894 0 1.48759 1.32894 2.4057 1.48759 2.35357 2.158 2.95338 2.4057 3.35788 2.95338 3.4462 3.35788 3.80004 2.4057 3.35788 2.35357 3.4467 3.35788 3.80004 3.4467 4.04126 0 1.48759 0 1.54485 1.48759 2.35357 1.54485 2.68931 0 1.54485 0 1.32356 1.54485 2.68931 1.32356 2.82322 2.35357 3.4467 2.68931 3.521 3.4467 4.04126 3.521 4.21111 2.68931 3.521 2.82322 3.7331 3.521 4.21111 3.7331 4.3142 3.4462 3.81345 3.80004 4.18848 3.81345 4.04991 4.18848 4.46354 3.80004 4.18848 4.04126 4.45405 4.18848 4.46354 4.45405 4.73888 4.04991 4.21345 4.46354 4.69997 4.21345 4.31844 4.69997 4.8227 4.46354 4.69997 4.73888 4.98069 4.69997 4.8227 4.98069 5.12495 4.04126 4.45405 4.21111 4.69235 4.45405 4.73888 4.69235 4.98342 4.21111 4.69235 4.3142 4.81928 4.69235 4.98342 4.81928 5.13205 4.73888 4.98069 4.98342 5.20417 4.98069 5.12495 5.20417 5.35615 4.98342 5.20417 5.13205 5.35572 5.20417 5.35615 5.35572 5.53544 0 0 1.32335 1.35489 0 0 1.35489 1.50931 1.32335 1.35489 2.8095 2.71667 1.35489 1.50931 2.71667 2.84323 0 0 1.50931 1.49564 0 0 1.49564 1.4899 1.50931 1.49564 2.84323 2.67762 1.49564 1.4899 2.67762 2.7499 2.8095 2.71667 3.72651 3.70539 2.71667 2.84323 3.70539 3.74948 3.72651 3.70539 4.31844 4.31696 3.70539 3.74948 4.31696 4.43074 2.84323 2.67762 3.74948 3.72947 2.67762 2.7499 3.72947 3.75152 3.74948 3.72947 4.43074 4.4216 3.72947 3.75152 4.4216 4.42153 0 0 1.4899 1.40137 0 0 1.40137 1.40155 1.4899 1.40137 2.7499 2.76744 1.40137 1.40155 2.76744 2.9461 0 0 1.40155 1.48335 0 0 1.48335 1.54015 1.40155 1.48335 2.9461 2.80161 1.48335 1.54015 2.80161 2.80925 2.7499 2.76744 3.75152 3.67034 2.76744 2.9461 3.67034 3.58298 3.75152 3.67034 4.42153 4.43512 3.67034 3.58298 4.43512 4.45319 2.9461 2.80161 3.58298 3.56814 2.80161 2.80925 3.56814 3.64599 3.58298 3.56814 4.45319 4.48461 3.56814 3.64599 4.48461 4.57089 4.31844 4.31696 4.8227 4.95817 4.31696 4.43074 4.95817 5.09104 4.8227 4.95817 5.12495 5.21371 4.95817 5.09104 5.21371 5.26943 4.43074 4.4216 5.09104 5.02393 4.4216 4.42153 5.02393 4.97901 5.09104 5.02393 5.26943 5.24941 5.02393 4.97901 5.24941 5.17252 5.12495 5.21371 5.35615 5.44545 5.21371 5.26943 5.44545 5.53914 5.35615 5.44545 5.53544 5.70405 5.44545 5.53914 5.70405 5.72406 5.26943 5.24941 5.53914 5.55193 5.24941 5.17252 5.55193 5.59039 5.53914 5.55193 5.72406 5.65842 5.55193 5.59039 5.65842 5.58462 4.42153 4.43512 4.97901 5.0603 4.43512 4.45319 5.0603 5.04598 4.97901 5.0603 5.17252 5.18807 5.0603 5.04598 5.18807 5.25475 4.45319 4.48461 5.04598 4.94357 4.48461 4.57089 4.94357 4.91967 5.04598 4.94357 5.25475 5.19542 4.94357 4.91967 5.19542 5.27264 5.17252 5.18807 5.59039 5.60228 5.18807 5.25475 5.60228 5.53968 5.59039 5.60228 5.58462 5.58031 5.60228 5.53968 5.58031 5.48824 5.25475 5.19542 5.53968 5.51086 5.19542 5.27264 5.51086 5.57886 5.53968 5.51086 5.48824 5.42864 5.51086 5.57886 5.42864 5.4397 0 1.32356 0 1.34788 1.32356 2.82322 1.34788 2.72739 0 1.34788 0 1.50975 1.34788 2.72739 1.50975 2.85322 2.82322 3.7331 2.72739 3.70237 3.7331 4.3142 3.70237 4.31003 2.72739 3.70237 2.85322 3.74086 3.70237 4.31003 3.74086 4.4249 0 1.50975 0 1.50489 1.50975 2.85322 1.50489 2.67723 0 1.50489 0 1.49168 1.50489 2.67723 1.49168 2.7664 2.85322 3.74086 2.67723 3.71578 3.74086 4.4249 3.71578 4.41486 2.67723 3.71578 2.7664 3.75438 3.71578 4.41486 3.75438 4.42452 4.3142 4.81928 4.31003 4.95296 4.81928 5.13205 4.95296 5.21428 4.31003 4.95296 4.4249 5.08877 4.95296 5.21428 5.08877 5.27195 5.13205 5.35572 5.21428 5.44044 5.35572 5.53544 5.44044 5.69758 5.21428 5.44044 5.27195 5.52776 5.44044 5.69758 5.52776 5.73158 4.4249 5.08877 4.41486 5.02825 5.08877 5.27195 5.02825 5.25464 4.41486 5.02825 4.42452 4.976 5.02825 5.25464 4.976 5.18073 5.27195 5.52776 5.25464 5.53145 5.52776 5.73158 5.53145 5.68013 5.25464 5.53145 5.18073 5.58069 5.53145 5.68013 5.58069 5.60598 0 1.49168 0 1.39599 1.49168 2.7664 1.39599 2.83517 0 1.39599 0 1.38935 1.39599 2.83517 1.38935 2.8605 2.7664 3.75438 2.83517 3.68853 3.75438 4.42452 3.68853 4.43555 2.83517 3.68853 2.8605 3.57153 3.68853 4.43555 3.57153 4.46352 0 1.38935 0 1.49345 1.38935 2.8605 1.49345 2.77782 0 1.49345 0 1.53406 1.49345 2.77782 1.53406 2.797 2.8605 3.57153 2.77782 3.57321 3.57153 4.46352 3.57321 4.50323 2.77782 3.57321 2.797 3.6453 3.57321 4.50323 3.6453 4.57201 4.42452 4.976 4.43555 5.04077 4.976 5.18073 5.04077 5.17057 4.43555 5.04077 4.46352 5.03383 5.04077 5.17057 5.03383 5.20968 5.18073 5.58069 5.17057 5.59465 5.58069 5.60598 5.59465 5.60084 5.17057 5.59465 5.20968 5.52694 5.59465 5.60084 5.52694 5.54081 4.46352 5.03383 4.50323 4.9319 5.03383 5.20968 4.9319 5.20562 4.50323 4.9319 4.57201 4.89176 4.9319 5.20562 4.89176 5.27962 5.20968 5.52694 5.20562 5.48488 5.52694 5.54081 5.48488 5.47708 5.20562 5.48488 5.27962 5.54234 5.48488 5.47708 5.54234 5.48243 5.53544 5.70405 5.69758 5.80237 5.70405 5.72406 5.80237 5.6137 5.69758 5.80237 5.73158 5.61357 5.80237 5.6137 5.61357 5.605 5.72406 5.65842 5.6137 5.57407 5.65842 5.58462 5.57407 5.69095 5.6137 5.57407 5.605 5.86868 5.57407 5.69095 5.86868 5.87682 5.73158 5.61357 5.68013 5.56337 5.61357 5.605 5.56337 5.85731 5.68013 5.56337 5.60598 5.65826 5.56337 5.85731 5.65826 5.90246 5.605 5.86868 5.85731 5.88476 5.86868 5.87682 5.88476 5.5312 5.85731 5.88476 5.90246 5.54185 5.88476 5.5312 5.54185 5.56815 5.58462 5.58031 5.69095 5.70059 5.58031 5.48824 5.70059 5.80328 5.69095 5.70059 5.87682 5.66651 5.70059 5.80328 5.66651 5.60696 5.48824 5.42864 5.80328 5.78811 5.42864 5.4397 5.78811 5.70558 5.80328 5.78811 5.60696 5.54531 5.78811 5.70558 5.54531 5.56296 5.87682 5.66651 5.5312 5.57398 5.66651 5.60696 5.57398 5.65071 5.5312 5.57398 5.56815 5.83254 5.57398 5.65071 5.83254 5.78394 5.60696 5.54531 5.65071 5.63331 5.54531 5.56296 5.63331 5.6602 5.65071 5.63331 5.78394 5.66856 5.63331 5.6602 5.66856 5.66608 5.60598 5.65826 5.60084 5.62889 5.65826 5.90246 5.62889 5.72994 5.60084 5.62889 5.54081 5.72194 5.62889 5.72994 5.72194 5.66647 5.90246 5.54185 5.72994 5.56135 5.54185 5.56815 5.56135 5.82007 5.72994 5.56135 5.66647 5.60918 5.56135 5.82007 5.60918 5.77364 5.54081 5.72194 5.47708 5.76371 5.72194 5.66647 5.76371 5.60094 5.47708 5.76371 5.48243 5.7249 5.76371 5.60094 5.7249 5.58846 5.66647 5.60918 5.60094 5.59065 5.60918 5.77364 5.59065 5.68545 5.60094 5.59065 5.58846 5.62281 5.59065 5.68545 5.62281 5.68781 5.56815 5.83254 5.82007 5.78746 5.83254 5.78394 5.78746 5.49774 5.82007 5.78746 5.77364 5.51903 5.78746 5.49774 5.51903 5.4265 5.78394 5.66856 5.49774 5.4862 5.66856 5.66608 5.4862 5.53654 5.49774 5.4862 5.4265 5.51154 5.4862 5.53654 5.51154 5.52503 5.77364 5.51903 5.68545 5.51522 5.51903 5.4265 5.51522 5.50948 5.68545 5.51522 5.68781 5.54946 5.51522 5.50948 5.54946 5.51387 5.4265 5.51154 5.50948 5.52444 5.51154 5.52503 5.52444 5.49345 5.50948 5.52444 5.51387 5.48686 5.52444 5.49345 5.48686 5.44867 0 0 1.54015 1.49489 0 0 1.49489 1.41741 1.54015 1.49489 2.80925 2.78383 1.49489 1.41741 2.78383 2.98076 0 0 1.41741 1.40271 0 0 1.40271 1.48526 1.41741 1.40271 2.98076 2.77332 1.40271 1.48526 2.77332 2.7527 2.80925 2.78383 3.64599 3.56886 2.78383 2.98076 3.56886 3.55677 3.64599 3.56886 4.57089 4.51391 3.56886 3.55677 4.51391 4.45008 2.98076 2.77332 3.55677 3.62572 2.77332 2.7527 3.62572 3.74037 3.55677 3.62572 4.45008 4.44417 3.62572 3.74037 4.44417 4.44193 0 0 1.48526 1.4957 0 0 1.4957 1.50619 1.48526 1.4957 2.7527 2.69515 1.4957 1.50619 2.69515 2.81184 0 0 1.50619 1.35624 0 0 1.35624 1.33945 1.50619 1.35624 2.81184 2.70236 1.35624 1.33945 2.70236 2.82161 2.7527 2.69515 3.74037 3.74409 2.69515 2.81184 3.74409 3.75867 3.74037 3.74409 4.44193 4.42613 3.74409 3.75867 4.42613 4.42751 2.81184 2.70236 3.75867 3.71878 2.70236 2.82161 3.71878 3.72923 3.75867 3.71878 4.42751 4.33133 3.71878 3.72923 4.33133 4.33902 4.57089 4.51391 4.91967 4.95533 4.51391 4.45008 4.95533 5.03541 4.91967 4.95533 5.27264 5.23827 4.95533 5.03541 5.23827 5.19291 4.45008 4.44417 5.03541 5.08395 4.44417 4.44193 5.08395 4.99207 5.03541 5.08395 5.19291 5.29994 5.08395 4.99207 5.29994 5.13591 5.27264 5.23827 5.57886 5.55847 5.23827 5.19291 5.55847 5.50734 5.57886 5.55847 5.4397 5.46685 5.55847 5.50734 5.46685 5.48235 5.19291 5.29994 5.50734 5.63082 5.29994 5.13591 5.63082 5.5813 5.50734 5.63082 5.48235 5.57501 5.63082 5.5813 5.57501 5.59183 4.44193 4.42613 4.99207 4.99827 4.42613 4.42751 4.99827 5.08343 4.99207 4.99827 5.13591 5.23763 4.99827 5.08343 5.23763 5.2652 4.42751 4.33133 5.08343 4.95014 4.33133 4.33902 4.95014 4.84507 5.08343 4.95014 5.2652 5.20435 4.95014 4.84507 5.20435 5.12454 5.13591 5.23763 5.5813 5.59451 5.23763 5.2652 5.59451 5.53789 5.5813 5.59451 5.59183 5.62629 5.59451 5.53789 5.62629 5.71159 5.2652 5.20435 5.53789 5.46677 5.20435 5.12454 5.46677 5.3501 5.53789 5.46677 5.71159 5.72954 5.46677 5.3501 5.72954 5.51509 0 0 1.33945 1.54806 0 0 1.54806 1.53518 1.33945 1.54806 2.82161 2.69005 1.54806 1.53518 2.69005 2.3082 0 0 1.53518 1.31534 0 0 1.31534 1.28881 1.53518 1.31534 2.3082 2.32726 1.31534 1.28881 2.32726 2.1532 2.82161 2.69005 3.72923 3.50638 2.69005 2.3082 3.50638 3.40823 3.72923 3.50638 4.33902 4.20967 3.50638 3.40823 4.20967 4.05679 2.3082 2.32726 3.40823 3.39119 2.32726 2.1532 3.39119 2.95651 3.40823 3.39119 4.05679 3.83906 3.39119 2.95651 3.83906 3.45123 0 0 1.28881 0.9767 0 0 0.9767 0.890428 1.28881 0.9767 2.1532 1.89954 0.9767 0.890428 1.89954 1.37132 0 0 0.890428 0.43494 0 0 0.43494 0 0.890428 0.43494 1.37132 0.890302 0.43494 0 0.890302 0 2.1532 1.89954 2.95651 2.53614 1.89954 1.37132 2.53614 1.90282 2.95651 2.53614 3.45123 2.95416 2.53614 1.90282 2.95416 2.15796 1.37132 0.890302 1.90282 0.975298 0.890302 0 0.975298 0 1.90282 0.975298 2.15796 1.28557 0.975298 0 1.28557 0 4.33902 4.20967 4.84507 4.72219 4.20967 4.05679 4.72219 4.45556 4.84507 4.72219 5.12454 4.99727 4.72219 4.45556 4.99727 4.7394 4.05679 3.83906 4.45556 4.18887 3.83906 3.45123 4.18887 3.82959 4.45556 4.18887 4.7394 4.44814 4.18887 3.82959 4.44814 4.05017 5.12454 4.99727 5.3501 5.21587 4.99727 4.7394 5.21587 4.99443 5.3501 5.21587 5.51509 5.35186 5.21587 4.99443 5.35186 5.1273 4.7394 4.44814 4.99443 4.71414 4.44814 4.05017 4.71414 4.21042 4.99443 4.71414 5.1273 4.83943 4.71414 4.21042 4.83943 4.33425 3.45123 2.95416 3.82959 3.37844 2.95416 2.15796 3.37844 2.32935 3.82959 3.37844 4.05017 3.41627 3.37844 2.32935 3.41627 2.30596 2.15796 1.28557 2.32935 1.31761 1.28557 0 1.31761 0 2.32935 1.31761 2.30596 1.51589 1.31761 0 1.51589 0 4.05017 3.41627 4.21042 3.51137 3.41627 2.30596 3.51137 2.6928 4.21042 3.51137 4.33425 3.73231 3.51137 2.6928 3.73231 2.82536 2.30596 1.51589 2.6928 1.54725 1.51589 0 1.54725 0 2.6928 1.54725 2.82536 1.32293 1.54725 0 1.32293 0 5.4397 5.46685 5.70558 5.78023 5.46685 5.48235 5.78023 5.79389 5.70558 5.78023 5.56296 5.54725 5.78023 5.79389 5.54725 5.58028 5.48235 5.57501 5.79389 5.69182 5.57501 5.59183 5.69182 5.73955 5.79389 5.69182 5.58028 5.63584 5.69182 5.73955 5.63584 5.86279 5.56296 5.54725 5.6602 5.65482 5.54725 5.58028 5.65482 5.6802 5.6602 5.65482 5.66608 5.65573 5.65482 5.6802 5.65573 5.73308 5.58028 5.63584 5.6802 5.60745 5.63584 5.86279 5.60745 5.49086 5.6802 5.60745 5.73308 5.88225 5.60745 5.49086 5.88225 5.65312 5.59183 5.62629 5.73955 5.57831 5.62629 5.71159 5.57831 5.60801 5.73955 5.57831 5.86279 5.87307 5.57831 5.60801 5.87307 5.61613 5.71159 5.72954 5.60801 5.77016 5.72954 5.51509 5.77016 5.73176 5.60801 5.77016 5.61613 5.60199 5.77016 5.73176 5.60199 5.71002 5.86279 5.87307 5.49086 5.8833 5.87307 5.61613 5.8833 5.87247 5.49086 5.8833 5.65312 5.49086 5.8833 5.87247 5.49086 5.87991 5.61613 5.60199 5.87247 5.57592 5.60199 5.71002 5.57592 5.64531 5.87247 5.57592 5.87991 5.71951 5.57592 5.64531 5.71951 5.59471 5.66608 5.65573 5.53654 5.50794 5.65573 5.73308 5.50794 5.45424 5.53654 5.50794 5.52503 5.53908 5.50794 5.45424 5.53908 5.46305 5.73308 5.88225 5.45424 5.68668 5.88225 5.65312 5.68668 5.87738 5.45424 5.68668 5.46305 5.46787 5.68668 5.87738 5.46787 5.73213 5.52503 5.53908 5.49345 5.53451 5.53908 5.46305 5.53451 5.53721 5.49345 5.53451 5.44867 5.49056 5.53451 5.53721 5.49056 5.51709 5.46305 5.46787 5.53721 5.52516 5.46787 5.73213 5.52516 5.67319 5.53721 5.52516 5.51709 5.54661 5.52516 5.67319 5.54661 5.68445 5.65312 5.49086 5.87738 5.59139 5.49086 5.87991 5.59139 5.69253 5.87738 5.59139 5.73213 5.64598 5.59139 5.69253 5.64598 5.6118 5.87991 5.71951 5.69253 5.65836 5.71951 5.59471 5.65836 5.58583 5.69253 5.65836 5.6118 5.74244 5.65836 5.58583 5.74244 5.50558 5.73213 5.64598 5.67319 5.62535 5.64598 5.6118 5.62535 5.57321 5.67319 5.62535 5.68445 5.62992 5.62535 5.57321 5.62992 5.58058 5.6118 5.74244 5.57321 5.77338 5.74244 5.50558 5.77338 5.49708 5.57321 5.77338 5.58058 5.72361 5.77338 5.49708 5.72361 5.47097 5.51509 5.35186 5.73176 5.46522 5.35186 5.1273 5.46522 5.20075 5.73176 5.46522 5.71002 5.52944 5.46522 5.20075 5.52944 5.26281 5.1273 4.83943 5.20075 4.94761 4.83943 4.33425 4.94761 4.3278 5.20075 4.94761 5.26281 5.08571 4.94761 4.3278 5.08571 4.43097 5.71002 5.52944 5.64531 5.59043 5.52944 5.26281 5.59043 5.24969 5.64531 5.59043 5.59471 5.56922 5.59043 5.24969 5.56922 5.14666 5.26281 5.08571 5.24969 5.00441 5.08571 4.43097 5.00441 4.42652 5.24969 5.00441 5.14666 4.97978 5.00441 4.42652 4.97978 4.44372 4.33425 3.73231 4.3278 3.71481 3.73231 2.82536 3.71481 2.71022 4.3278 3.71481 4.43097 3.75939 3.71481 2.71022 3.75939 2.8292 2.82536 1.32293 2.71022 1.35426 1.32293 0 1.35426 0 2.71022 1.35426 2.8292 1.50875 1.35426 0 1.50875 0 4.43097 3.75939 4.42652 3.73449 3.75939 2.8292 3.73449 2.67597 4.42652 3.73449 4.44372 3.74396 3.73449 2.67597 3.74396 2.74949 2.8292 1.50875 2.67597 1.50179 1.50875 0 1.50179 0 2.67597 1.50179 2.74949 1.48548 1.50179 0 1.48548 0 5.59471 5.56922 5.58583 5.62113 5.56922 5.14666 5.62113 5.28 5.58583 5.62113 5.50558 5.52001 5.62113 5.28 5.52001 5.18445 5.14666 4.97978 5.28 5.06882 4.97978 4.44372 5.06882 4.44488 5.28 5.06882 5.18445 5.02136 5.06882 4.44488 5.02136 4.45703 5.50558 5.52001 5.49708 5.53521 5.52001 5.18445 5.53521 5.22697 5.49708 5.53521 5.47097 5.54513 5.53521 5.22697 5.54513 5.28752 5.18445 5.02136 5.22697 4.93983 5.02136 4.45703 4.93983 4.53399 5.22697 4.93983 5.28752 4.88969 4.93983 4.53399 4.88969 4.56855 4.44372 3.74396 4.44488 3.64453 3.74396 2.74949 3.64453 2.83186 4.44488 3.64453 4.45703 3.55567 3.64453 2.83186 3.55567 2.90782 2.74949 1.48548 2.83186 1.3921 1.48548 0 1.3921 0 2.83186 1.3921 2.90782 1.39486 1.3921 0 1.39486 0 4.45703 3.55567 4.53399 3.5748 3.55567 2.90782 3.5748 2.79174 4.53399 3.5748 4.56855 3.64063 3.5748 2.79174 3.64063 2.7576 2.90782 1.39486 2.79174 1.49836 1.39486 0 1.49836 0 2.79174 1.49836 2.7576 1.53742 1.49836 0 1.53742 0 0 1.53406 0 1.49091 1.53406 2.797 1.49091 2.78645 0 1.49091 0 1.38913 1.49091 2.78645 1.38913 2.88869 2.797 3.6453 2.78645 3.57498 3.6453 4.57201 3.57498 4.5263 2.78645 3.57498 2.88869 3.55806 3.57498 4.5263 3.55806 4.45957 0 1.38913 0 1.39153 1.38913 2.88869 1.39153 2.83691 0 1.39153 0 1.48804 1.39153 2.83691 1.48804 2.7598 2.88869 3.55806 2.83691 3.66034 3.55806 4.45957 3.66034 4.44273 2.83691 3.66034 2.7598 3.74887 3.66034 4.44273 3.74887 4.43327 4.57201 4.89176 4.5263 4.93637 4.89176 5.27962 4.93637 5.21102 4.5263 4.93637 4.45957 5.02563 4.93637 5.21102 5.02563 5.19354 5.27962 5.54234 5.21102 5.51734 5.54234 5.48243 5.51734 5.50265 5.21102 5.51734 5.19354 5.52836 5.51734 5.50265 5.52836 5.5237 4.45957 5.02563 4.44273 5.05994 5.02563 5.19354 5.05994 5.2371 4.44273 5.05994 4.43327 4.97426 5.05994 5.2371 4.97426 5.15921 5.19354 5.52836 5.2371 5.61641 5.52836 5.5237 5.61641 5.58531 5.2371 5.61641 5.15921 5.57057 5.61641 5.58531 5.57057 5.59465 0 1.48804 0 1.50321 1.48804 2.7598 1.50321 2.67142 0 1.50321 0 1.50926 1.50321 2.67142 1.50926 2.83364 2.7598 3.74887 2.67142 3.72503 3.74887 4.43327 3.72503 4.41883 2.67142 3.72503 2.83364 3.74919 3.72503 4.41883 3.74919 4.42504 0 1.50926 0 1.34965 1.50926 2.83364 1.34965 2.7186 0 1.34965 0 1.3283 1.34965 2.7186 1.3283 2.81893 2.83364 3.74919 2.7186 3.71178 3.74919 4.42504 3.71178 4.31718 2.7186 3.71178 2.81893 3.73046 3.71178 4.31718 3.73046 4.32501 4.43327 4.97426 4.41883 5.01651 4.97426 5.15921 5.01651 5.25198 4.41883 5.01651 4.42504 5.08643 5.01651 5.25198 5.08643 5.26347 5.15921 5.57057 5.25198 5.56953 5.57057 5.59465 5.56953 5.66943 5.25198 5.56953 5.26347 5.52768 5.56953 5.66943 5.52768 5.72057 4.42504 5.08643 4.31718 4.9493 5.08643 5.26347 4.9493 5.21214 4.31718 4.9493 4.32501 4.83243 4.9493 5.21214 4.83243 5.12878 5.26347 5.52768 5.21214 5.45099 5.52768 5.72057 5.45099 5.71399 5.21214 5.45099 5.12878 5.34587 5.45099 5.71399 5.34587 5.51228 5.48243 5.7249 5.50265 5.7681 5.7249 5.58846 5.7681 5.58882 5.50265 5.7681 5.5237 5.71558 5.7681 5.58882 5.71558 5.63301 5.58846 5.62281 5.58882 5.6128 5.62281 5.68781 5.6128 5.67922 5.58882 5.6128 5.63301 5.62617 5.6128 5.67922 5.62617 5.76066 5.5237 5.71558 5.58531 5.64306 5.71558 5.63301 5.64306 5.73533 5.58531 5.64306 5.59465 5.69873 5.64306 5.73533 5.69873 5.90286 5.63301 5.62617 5.73533 5.56411 5.62617 5.76066 5.56411 5.85493 5.73533 5.56411 5.90286 5.52129 5.56411 5.85493 5.52129 5.5996 5.68781 5.54946 5.67922 5.51546 5.54946 5.51387 5.51546 5.52275 5.67922 5.51546 5.76066 5.48735 5.51546 5.52275 5.48735 5.43934 5.51387 5.48686 5.52275 5.5274 5.48686 5.44867 5.5274 5.4878 5.52275 5.5274 5.43934 5.52106 5.5274 5.4878 5.52106 5.5124 5.76066 5.48735 5.85493 5.74779 5.48735 5.43934 5.74779 5.47935 5.85493 5.74779 5.5996 5.8555 5.74779 5.47935 5.8555 5.76885 5.43934 5.52106 5.47935 5.50049 5.52106 5.5124 5.50049 5.53139 5.47935 5.50049 5.76885 5.6746 5.50049 5.53139 5.6746 5.67559 5.59465 5.69873 5.66943 5.55891 5.69873 5.90286 5.55891 5.85034 5.66943 5.55891 5.72057 5.61848 5.55891 5.85034 5.61848 5.59144 5.90286 5.52129 5.85034 5.91571 5.52129 5.5996 5.91571 5.51839 5.85034 5.91571 5.59144 5.85191 5.91571 5.51839 5.85191 5.89381 5.72057 5.61848 5.71399 5.79241 5.61848 5.59144 5.79241 5.62035 5.71399 5.79241 5.51228 5.71691 5.79241 5.62035 5.71691 5.72257 5.59144 5.85191 5.62035 5.56173 5.85191 5.89381 5.56173 5.71492 5.62035 5.56173 5.72257 5.65852 5.56173 5.71492 5.65852 5.59048 5.5996 5.8555 5.51839 5.57199 5.8555 5.76885 5.57199 5.65347 5.51839 5.57199 5.89381 5.67992 5.57199 5.65347 5.67992 5.60377 5.76885 5.6746 5.65347 5.63566 5.6746 5.67559 5.63566 5.63948 5.65347 5.63566 5.60377 5.55838 5.63566 5.63948 5.55838 5.55588 5.89381 5.67992 5.71492 5.67861 5.67992 5.60377 5.67861 5.77105 5.71492 5.67861 5.59048 5.58444 5.67861 5.77105 5.58444 5.50274 5.60377 5.55838 5.77105 5.79603 5.55838 5.55588 5.79603 5.72761 5.77105 5.79603 5.50274 5.47449 5.79603 5.72761 5.47449 5.45132 0 1.3283 0 1.55224 1.3283 2.81893 1.55224 2.69663 0 1.55224 0 1.51704 1.55224 2.69663 1.51704 2.30584 2.81893 3.73046 2.69663 3.50967 3.73046 4.32501 3.50967 4.20504 2.69663 3.50967 2.30584 3.43041 3.50967 4.20504 3.43041 4.05623 0 1.51704 0 1.33276 1.51704 2.30584 1.33276 2.37854 0 1.33276 0 1.27608 1.33276 2.37854 1.27608 2.14397 2.30584 3.43041 2.37854 3.39708 3.43041 4.05623 3.39708 3.83084 2.37854 3.39708 2.14397 2.95262 3.39708 3.83084 2.95262 3.44618 4.32501 4.83243 4.20504 4.70921 4.83243 5.12878 4.70921 4.99029 4.20504 4.70921 4.05623 4.45716 4.70921 4.99029 4.