# vtk DataFile Version 3.0
#This file was generated by the deal.II library on 2024/1/25 at 2:41:08
ASCII
DATASET UNSTRUCTURED_GRID

POINTS 16384 double
-1 -1 0
-0.96875 -1 0
-1 -0.96875 0
-0.96875 -0.96875 0
-0.96875 -1 0
-0.9375 -1 0
-0.96875 -0.96875 0
-0.9375 -0.96875 0
-1 -0.96875 0
-0.96875 -0.96875 0
-1 -0.9375 0
-0.96875 -0.9375 0
-0.96875 -0.96875 0
-0.9375 -0.96875 0
-0.96875 -0.9375 0
-0.9375 -0.9375 0
-0.9375 -1 0
-0.90625 -1 0
-0.9375 -0.96875 0
-0.90625 -0.96875 0
-0.90625 -1 0
-0.875 -1 0
-0.90625 -0.96875 0
-0.875 -0.96875 0
-0.9375 -0.96875 0
-0.90625 -0.96875 0
-0.9375 -0.9375 0
-0.90625 -0.9375 0
-0.90625 -0.96875 0
-0.875 -0.96875 0
-0.90625 -0.9375 0
-0.875 -0.9375 0
-1 -0.9375 0
-0.96875 -0.9375 0
-1 -0.90625 0
-0.96875 -0.90625 0
-0.96875 -0.9375 0
-0.9375 -0.9375 0
-0.96875 -0.90625 0
-0.9375 -0.90625 0
-1 -0.90625 0
-0.96875 -0.90625 0
-1 -0.875 0
-0.96875 -0.875 0
-0.96875 -0.90625 0
-0.9375 -0.90625 0
-0.96875 -0.875 0
-0.9375 -0.875 0
-0.9375 -0.9375 0
-0.90625 -0.9375 0
-0.9375 -0.90625 0
-0.90625 -0.90625 0
-0.90625 -0.9375 0
-0.875 -0.9375 0
-0.90625 -0.90625 0
-0.875 -0.90625 0
-0.9375 -0.90625 0
-0.90625 -0.90625 0
-0.9375 -0.875 0
-0.90625 -0.875 0
-0.90625 -0.90625 0
-0.875 -0.90625 0
-0.90625 -0.875 0
-0.875 -0.875 0
-0.875 -1 0
-0.84375 -1 0
-0.875 -0.96875 0
-0.84375 -0.96875 0
-0.84375 -1 0
-0.8125 -1 0
-0.84375 -0.96875 0
-0.8125 -0.96875 0
-0.875 -0.96875 0
-0.84375 -0.96875 0
-0.875 -0.9375 0
-0.84375 -0.9375 0
-0.84375 -0.96875 0
-0.8125 -0.96875 0
-0.84375 -0.9375 0
-0.8125 -0.9375 0
-0.8125 -1 0
-0.78125 -1 0
-0.8125 -0.96875 0
-0.78125 -0.96875 0
-0.78125 -1 0
-0.75 -1 0
-0.78125 -0.96875 0
-0.75 -0.96875 0
-0.8125 -0.96875 0
-0.78125 -0.96875 0
-0.8125 -0.9375 0
-0.78125 -0.9375 0
-0.78125 -0.96875 0
-0.75 -0.96875 0
-0.78125 -0.9375 0
-0.75 -0.9375 0
-0.875 -0.9375 0
-0.84375 -0.9375 0
-0.875 -0.90625 0
-0.84375 -0.90625 0
-0.84375 -0.9375 0
-0.8125 -0.9375 0
-0.84375 -0.90625 0
-0.8125 -0.90625 0
-0.875 -0.90625 0
-0.84375 -0.90625 0
-0.875 -0.875 0
-0.84375 -0.875 0
-0.84375 -0.90625 0
-0.8125 -0.90625 0
-0.84375 -0.875 0
-0.8125 -0.875 0
-0.8125 -0.9375 0
-0.78125 -0.9375 0
-0.8125 -0.90625 0
-0.78125 -0.90625 0
-0.78125 -0.9375 0
-0.75 -0.9375 0
-0.78125 -0.90625 0
-0.75 -0.90625 0
-0.8125 -0.90625 0
-0.78125 -0.90625 0
-0.8125 -0.875 0
-0.78125 -0.875 0
-0.78125 -0.90625 0
-0.75 -0.90625 0
-0.78125 -0.875 0
-0.75 -0.875 0
-1 -0.875 0
-0.96875 -0.875 0
-1 -0.84375 0
-0.96875 -0.84375 0
-0.96875 -0.875 0
-0.9375 -0.875 0
-0.96875 -0.84375 0
-0.9375 -0.84375 0
-1 -0.84375 0
-0.96875 -0.84375 0
-1 -0.8125 0
-0.96875 -0.8125 0
-0.96875 -0.84375 0
-0.9375 -0.84375 0
-0.96875 -0.8125 0
-0.9375 -0.8125 0
-0.9375 -0.875 0
-0.90625 -0.875 0
-0.9375 -0.84375 0
-0.90625 -0.84375 0
-0.90625 -0.875 0
-0.875 -0.875 0
-0.90625 -0.84375 0
-0.875 -0.84375 0
-0.9375 -0.84375 0
-0.90625 -0.84375 0
-0.9375 -0.8125 0
-0.90625 -0.8125 0
-0.90625 -0.84375 0
-0.875 -0.84375 0
-0.90625 -0.8125 0
-0.875 -0.8125 0
-1 -0.8125 0
-0.96875 -0.8125 0
-1 -0.78125 0
-0.96875 -0.78125 0
-0.96875 -0.8125 0
-0.9375 -0.8125 0
-0.96875 -0.78125 0
-0.9375 -0.78125 0
-1 -0.78125 0
-0.96875 -0.78125 0
-1 -0.75 0
-0.96875 -0.75 0
-0.96875 -0.78125 0
-0.9375 -0.78125 0
-0.96875 -0.75 0
-0.9375 -0.75 0
-0.9375 -0.8125 0
-0.90625 -0.8125 0
-0.9375 -0.78125 0
-0.90625 -0.78125 0
-0.90625 -0.8125 0
-0.875 -0.8125 0
-0.90625 -0.78125 0
-0.875 -0.78125 0
-0.9375 -0.78125 0
-0.90625 -0.78125 0
-0.9375 -0.75 0
-0.90625 -0.75 0
-0.90625 -0.78125 0
-0.875 -0.78125 0
-0.90625 -0.75 0
-0.875 -0.75 0
-0.875 -0.875 0
-0.84375 -0.875 0
-0.875 -0.84375 0
-0.84375 -0.84375 0
-0.84375 -0.875 0
-0.8125 -0.875 0
-0.84375 -0.84375 0
-0.8125 -0.84375 0
-0.875 -0.84375 0
-0.84375 -0.84375 0
-0.875 -0.8125 0
-0.84375 -0.8125 0
-0.84375 -0.84375 0
-0.8125 -0.84375 0
-0.84375 -0.8125 0
-0.8125 -0.8125 0
-0.8125 -0.875 0
-0.78125 -0.875 0
-0.8125 -0.84375 0
-0.78125 -0.84375 0
-0.78125 -0.875 0
-0.75 -0.875 0
-0.78125 -0.84375 0
-0.75 -0.84375 0
-0.8125 -0.84375 0
-0.78125 -0.84375 0
-0.8125 -0.8125 0
-0.78125 -0.8125 0
-0.78125 -0.84375 0
-0.75 -0.84375 0
-0.78125 -0.8125 0
-0.75 -0.8125 0
-0.875 -0.8125 0
-0.84375 -0.8125 0
-0.875 -0.78125 0
-0.84375 -0.78125 0
-0.84375 -0.8125 0
-0.8125 -0.8125 0
-0.84375 -0.78125 0
-0.8125 -0.78125 0
-0.875 -0.78125 0
-0.84375 -0.78125 0
-0.875 -0.75 0
-0.84375 -0.75 0
-0.84375 -0.78125 0
-0.8125 -0.78125 0
-0.84375 -0.75 0
-0.8125 -0.75 0
-0.8125 -0.8125 0
-0.78125 -0.8125 0
-0.8125 -0.78125 0
-0.78125 -0.78125 0
-0.78125 -0.8125 0
-0.75 -0.8125 0
-0.78125 -0.78125 0
-0.75 -0.78125 0
-0.8125 -0.78125 0
-0.78125 -0.78125 0
-0.8125 -0.75 0
-0.78125 -0.75 0
-0.78125 -0.78125 0
-0.75 -0.78125 0
-0.78125 -0.75 0
-0.75 -0.75 0
-0.75 -1 0
-0.71875 -1 0
-0.75 -0.96875 0
-0.71875 -0.96875 0
-0.71875 -1 0
-0.6875 -1 0
-0.71875 -0.96875 0
-0.6875 -0.96875 0
-0.75 -0.96875 0
-0.71875 -0.96875 0
-0.75 -0.9375 0
-0.71875 -0.9375 0
-0.71875 -0.96875 0
-0.6875 -0.96875 0
-0.71875 -0.9375 0
-0.6875 -0.9375 0
-0.6875 -1 0
-0.65625 -1 0
-0.6875 -0.96875 0
-0.65625 -0.96875 0
-0.65625 -1 0
-0.625 -1 0
-0.65625 -0.96875 0
-0.625 -0.96875 0
-0.6875 -0.96875 0
-0.65625 -0.96875 0
-0.6875 -0.9375 0
-0.65625 -0.9375 0
-0.65625 -0.96875 0
-0.625 -0.96875 0
-0.65625 -0.9375 0
-0.625 -0.9375 0
-0.75 -0.9375 0
-0.71875 -0.9375 0
-0.75 -0.90625 0
-0.71875 -0.90625 0
-0.71875 -0.9375 0
-0.6875 -0.9375 0
-0.71875 -0.90625 0
-0.6875 -0.90625 0
-0.75 -0.90625 0
-0.71875 -0.90625 0
-0.75 -0.875 0
-0.71875 -0.875 0
-0.71875 -0.90625 0
-0.6875 -0.90625 0
-0.71875 -0.875 0
-0.6875 -0.875 0
-0.6875 -0.9375 0
-0.65625 -0.9375 0
-0.6875 -0.90625 0
-0.65625 -0.90625 0
-0.65625 -0.9375 0
-0.625 -0.9375 0
-0.65625 -0.90625 0
-0.625 -0.90625 0
-0.6875 -0.90625 0
-0.65625 -0.90625 0
-0.6875 -0.875 0
-0.65625 -0.875 0
-0.65625 -0.90625 0
-0.625 -0.90625 0
-0.65625 -0.875 0
-0.625 -0.875 0
-0.625 -1 0
-0.59375 -1 0
-0.625 -0.96875 0
-0.59375 -0.96875 0
-0.59375 -1 0
-0.5625 -1 0
-0.59375 -0.96875 0
-0.5625 -0.96875 0
-0.625 -0.96875 0
-0.59375 -0.96875 0
-0.625 -0.9375 0
-0.59375 -0.9375 0
-0.59375 -0.96875 0
-0.5625 -0.96875 0
-0.59375 -0.9375 0
-0.5625 -0.9375 0
-0.5625 -1 0
-0.53125 -1 0
-0.5625 -0.96875 0
-0.53125 -0.96875 0
-0.53125 -1 0
-0.5 -1 0
-0.53125 -0.96875 0
-0.5 -0.96875 0
-0.5625 -0.96875 0
-0.53125 -0.96875 0
-0.5625 -0.9375 0
-0.53125 -0.9375 0
-0.53125 -0.96875 0
-0.5 -0.96875 0
-0.53125 -0.9375 0
-0.5 -0.9375 0
-0.625 -0.9375 0
-0.59375 -0.9375 0
-0.625 -0.90625 0
-0.59375 -0.90625 0
-0.59375 -0.9375 0
-0.5625 -0.9375 0
-0.59375 -0.90625 0
-0.5625 -0.90625 0
-0.625 -0.90625 0
-0.59375 -0.90625 0
-0.625 -0.875 0
-0.59375 -0.875 0
-0.59375 -0.90625 0
-0.5625 -0.90625 0
-0.59375 -0.875 0
-0.5625 -0.875 0
-0.5625 -0.9375 0
-0.53125 -0.9375 0
-0.5625 -0.90625 0
-0.53125 -0.90625 0
-0.53125 -0.9375 0
-0.5 -0.9375 0
-0.53125 -0.90625 0
-0.5 -0.90625 0
-0.5625 -0.90625 0
-0.53125 -0.90625 0
-0.5625 -0.875 0
-0.53125 -0.875 0
-0.53125 -0.90625 0
-0.5 -0.90625 0
-0.53125 -0.875 0
-0.5 -0.875 0
-0.75 -0.875 0
-0.71875 -0.875 0
-0.75 -0.84375 0
-0.71875 -0.84375 0
-0.71875 -0.875 0
-0.6875 -0.875 0
-0.71875 -0.84375 0
-0.6875 -0.84375 0
-0.75 -0.84375 0
-0.71875 -0.84375 0
-0.75 -0.8125 0
-0.71875 -0.8125 0
-0.71875 -0.84375 0
-0.6875 -0.84375 0
-0.71875 -0.8125 0
-0.6875 -0.8125 0
-0.6875 -0.875 0
-0.65625 -0.875 0
-0.6875 -0.84375 0
-0.65625 -0.84375 0
-0.65625 -0.875 0
-0.625 -0.875 0
-0.65625 -0.84375 0
-0.625 -0.84375 0
-0.6875 -0.84375 0
-0.65625 -0.84375 0
-0.6875 -0.8125 0
-0.65625 -0.8125 0
-0.65625 -0.84375 0
-0.625 -0.84375 0
-0.65625 -0.8125 0
-0.625 -0.8125 0
-0.75 -0.8125 0
-0.71875 -0.8125 0
-0.75 -0.78125 0
-0.71875 -0.78125 0
-0.71875 -0.8125 0
-0.6875 -0.8125 0
-0.71875 -0.78125 0
-0.6875 -0.78125 0
-0.75 -0.78125 0
-0.71875 -0.78125 0
-0.75 -0.75 0
-0.71875 -0.75 0
-0.71875 -0.78125 0
-0.6875 -0.78125 0
-0.71875 -0.75 0
-0.6875 -0.75 0
-0.6875 -0.8125 0
-0.65625 -0.8125 0
-0.6875 -0.78125 0
-0.65625 -0.78125 0
-0.65625 -0.8125 0
-0.625 -0.8125 0
-0.65625 -0.78125 0
-0.625 -0.78125 0
-0.6875 -0.78125 0
-0.65625 -0.78125 0
-0.6875 -0.75 0
-0.65625 -0.75 0
-0.65625 -0.78125 0
-0.625 -0.78125 0
-0.65625 -0.75 0
-0.625 -0.75 0
-0.625 -0.875 0
-0.59375 -0.875 0
-0.625 -0.84375 0
-0.59375 -0.84375 0
-0.59375 -0.875 0
-0.5625 -0.875 0
-0.59375 -0.84375 0
-0.5625 -0.84375 0
-0.625 -0.84375 0
-0.59375 -0.84375 0
-0.625 -0.8125 0
-0.59375 -0.8125 0
-0.59375 -0.84375 0
-0.5625 -0.84375 0
-0.59375 -0.8125 0
-0.5625 -0.8125 0
-0.5625 -0.875 0
-0.53125 -0.875 0
-0.5625 -0.84375 0
-0.53125 -0.84375 0
-0.53125 -0.875 0
-0.5 -0.875 0
-0.53125 -0.84375 0
-0.5 -0.84375 0
-0.5625 -0.84375 0
-0.53125 -0.84375 0
-0.5625 -0.8125 0
-0.53125 -0.8125 0
-0.53125 -0.84375 0
-0.5 -0.84375 0
-0.53125 -0.8125 0
-0.5 -0.8125 0
-0.625 -0.8125 0
-0.59375 -0.8125 0
-0.625 -0.78125 0
-0.59375 -0.78125 0
-0.59375 -0.8125 0
-0.5625 -0.8125 0
-0.59375 -0.78125 0
-0.5625 -0.78125 0
-0.625 -0.78125 0
-0.59375 -0.78125 0
-0.625 -0.75 0
-0.59375 -0.75 0
-0.59375 -0.78125 0
-0.5625 -0.78125 0
-0.59375 -0.75 0
-0.5625 -0.75 0
-0.5625 -0.8125 0
-0.53125 -0.8125 0
-0.5625 -0.78125 0
-0.53125 -0.78125 0
-0.53125 -0.8125 0
-0.5 -0.8125 0
-0.53125 -0.78125 0
-0.5 -0.78125 0
-0.5625 -0.78125 0
-0.53125 -0.78125 0
-0.5625 -0.75 0
-0.53125 -0.75 0
-0.53125 -0.78125 0
-0.5 -0.78125 0
-0.53125 -0.75 0
-0.5 -0.75 0
-1 -0.75 0
-0.96875 -0.75 0
-1 -0.71875 0
-0.96875 -0.71875 0
-0.96875 -0.75 0
-0.9375 -0.75 0
-0.96875 -0.71875 0
-0.9375 -0.71875 0
-1 -0.71875 0
-0.96875 -0.71875 0
-1 -0.6875 0
-0.96875 -0.6875 0
-0.96875 -0.71875 0
-0.9375 -0.71875 0
-0.96875 -0.6875 0
-0.9375 -0.6875 0
-0.9375 -0.75 0
-0.90625 -0.75 0
-0.9375 -0.71875 0
-0.90625 -0.71875 0
-0.90625 -0.75 0
-0.875 -0.75 0
-0.90625 -0.71875 0
-0.875 -0.71875 0
-0.9375 -0.71875 0
-0.90625 -0.71875 0
-0.9375 -0.6875 0
-0.90625 -0.6875 0
-0.90625 -0.71875 0
-0.875 -0.71875 0
-0.90625 -0.6875 0
-0.875 -0.6875 0
-1 -0.6875 0
-0.96875 -0.6875 0
-1 -0.65625 0
-0.96875 -0.65625 0
-0.96875 -0.6875 0
[...]
POINT_DATA 16384
SCALARS u_vec double 1
LOOKUP_TABLE default
0 0 0 0.235055 0 0 0.235055 0.221251 0 0.235055 0 0.221215 0.235055 0.221251 0.221215 0.53385 0 0 0.221251 0.57179 0 0 0.57179 0.358045 0.221251 0.57179 0.53385 0.522048 0.57179 0.358045 0.522048 0.715137 0 0.221215 0 0.571848 0.221215 0.53385 0.571848 0.522131 0 0.571848 0 0.35796 0.571848 0.522131 0.35796 0.71509 0.53385 0.522048 0.522131 1.58721 0.522048 0.715137 1.58721 1.15376 0.522131 1.58721 0.71509 1.1537 1.58721 1.15376 1.1537 1.33925 0 0 0.358045 0.450723 0 0 0.450723 0.66462 0.358045 0.450723 0.715137 1.04672 0.450723 0.66462 1.04672 1.13038 0 0 0.66462 0.678727 0 0 0.678727 0.637273 0.66462 0.678727 1.13038 1.05474 0.678727 0.637273 1.05474 1.12828 0.715137 1.04672 1.15376 1.03745 1.04672 1.13038 1.03745 1.60815 1.15376 1.03745 1.33925 1.71581 1.03745 1.60815 1.71581 2.05897 1.13038 1.05474 1.60815 1.99058 1.05474 1.12828 1.99058 1.91497 1.60815 1.99058 2.05897 2.12858 1.99058 1.91497 2.12858 2.06821 0 0.35796 0 0.450747 0.35796 0.71509 0.450747 1.04677 0 0.450747 0 0.664586 0.450747 1.04677 0.664586 1.13041 0.71509 1.1537 1.04677 1.03742 1.1537 1.33925 1.03742 1.71579 1.04677 1.03742 1.13041 1.60819 1.03742 1.71579 1.60819 2.05899 0 0.664586 0 0.678632 0.664586 1.13041 0.678632 1.05464 0 0.678632 0 0.6373 0.678632 1.05464 0.6373 1.12816 1.13041 1.60819 1.05464 1.99063 1.60819 2.05899 1.99063 2.12861 1.05464 1.99063 1.12816 1.91497 1.99063 2.12861 1.91497 2.06818 1.33925 1.71581 1.71579 2.11552 1.71581 2.05897 2.11552 2.14362 1.71579 2.11552 2.05899 2.14362 2.11552 2.14362 2.14362 2.29613 2.05897 2.12858 2.14362 2.22837 2.12858 2.06821 2.22837 2.51398 2.14362 2.22837 2.29613 2.71366 2.22837 2.51398 2.71366 3.19216 2.05899 2.14362 2.12861 2.22835 2.14362 2.29613 2.22835 2.71365 2.12861 2.22835 2.06818 2.51396 2.22835 2.71365 2.51396 3.19218 2.29613 2.71366 2.71365 3.28792 2.71366 3.19216 3.28792 3.64616 2.71365 3.28792 3.19218 3.64618 3.28792 3.64616 3.64618 3.77083 0 0 0.637273 0.668832 0 0 0.668832 0.718645 0.637273 0.668832 1.12828 1.39289 0.668832 0.718645 1.39289 1.65059 0 0 0.718645 0.725039 0 0 0.725039 0.710228 0.718645 0.725039 1.65059 1.73149 0.725039 0.710228 1.73149 1.6189 1.12828 1.39289 1.91497 1.6933 1.39289 1.65059 1.6933 1.60933 1.91497 1.6933 2.06821 2.10381 1.6933 1.60933 2.10381 2.30248 1.65059 1.73149 1.60933 1.71411 1.73149 1.6189 1.71411 1.92579 1.60933 1.71411 2.30248 2.59208 1.71411 1.92579 2.59208 2.86925 0 0 0.710228 0.726964 0 0 0.726964 0.796319 0.710228 0.726964 1.6189 1.40219 0.726964 0.796319 1.40219 1.18679 0 0 0.796319 0.898982 0 0 0.898982 0.998607 0.796319 0.898982 1.18679 1.04192 0.898982 0.998607 1.04192 0.99166 1.6189 1.40219 1.92579 2.1512 1.40219 1.18679 2.1512 2.33553 1.92579 2.1512 2.86925 3.06655 2.1512 2.33553 3.06655 3.16413 1.18679 1.04192 2.33553 2.46159 1.04192 0.99166 2.46159 2.53387 2.33553 2.46159 3.16413 3.17427 2.46159 2.53387 3.17427 3.12268 2.06821 2.10381 2.51398 2.88626 2.10381 2.30248 2.88626 3.20075 2.51398 2.88626 3.19216 3.5191 2.88626 3.20075 3.5191 3.64062 2.30248 2.59208 3.20075 3.38649 2.59208 2.86925 3.38649 3.44343 3.20075 3.38649 3.64062 3.61198 3.38649 3.44343 3.61198 3.5144 3.19216 3.5191 3.64616 3.74271 3.5191 3.64062 3.74271 3.68349 3.64616 3.74271 3.77083 3.71463 3.74271 3.68349 3.71463 3.63932 3.64062 3.61198 3.68349 3.58591 3.61198 3.5144 3.58591 3.52056 3.68349 3.58591 3.63932 3.62712 3.58591 3.52056 3.62712 3.691 2.86925 3.06655 3.44343 3.40734 3.06655 3.16413 3.40734 3.32075 3.44343 3.40734 3.5144 3.41017 3.40734 3.32075 3.41017 3.33287 3.16413 3.17427 3.32075 3.21821 3.17427 3.12268 3.21821 3.12208 3.32075 3.21821 3.33287 3.29346 3.21821 3.12208 3.29346 3.28961 3.5144 3.41017 3.52056 3.51111 3.41017 3.33287 3.51111 3.55293 3.52056 3.51111 3.691 3.80998 3.51111 3.55293 3.80998 3.95535 3.33287 3.29346 3.55293 3.63002 3.29346 3.28961 3.63002 3.72517 3.55293 3.63002 3.95535 4.10329 3.63002 3.72517 4.10329 4.23827 0 0.6373 0 0.668947 0.6373 1.12816 0.668947 1.3929 0 0.668947 0 0.718669 0.668947 1.3929 0.718669 1.65074 1.12816 1.91497 1.3929 1.69325 1.91497 2.06818 1.69325 2.10374 1.3929 1.69325 1.65074 1.60924 1.69325 2.10374 1.60924 2.3024 0 0.718669 0 0.724907 0.718669 1.65074 0.724907 1.73168 0 0.724907 0 0.710041 0.724907 1.73168 0.710041 1.61903 1.65074 1.60924 1.73168 1.71402 1.60924 2.3024 1.71402 2.59207 1.73168 1.71402 1.61903 1.92573 1.71402 2.59207 1.92573 2.86934 2.06818 2.51396 2.10374 2.88627 2.51396 3.19218 2.88627 3.51916 2.10374 2.88627 2.3024 3.20081 2.88627 3.51916 3.20081 3.6407 3.19218 3.64618 3.51916 3.74275 3.64618 3.77083 3.74275 3.71463 3.51916 3.74275 3.6407 3.68349 3.74275 3.71463 3.68349 3.63927 2.3024 3.20081 2.59207 3.38661 3.20081 3.6407 3.38661 3.61204 2.59207 3.38661 2.86934 3.44357 3.38661 3.61204 3.44357 3.51438 3.6407 3.68349 3.61204 3.58584 3.68349 3.63927 3.58584 3.627 3.61204 3.58584 3.51438 3.5204 3.58584 3.627 3.5204 3.69082 0 0.710041 0 0.726867 0.710041 1.61903 0.726867 1.40219 0 0.726867 0 0.796393 0.726867 1.40219 0.796393 1.18664 1.61903 1.92573 1.40219 2.15121 1.92573 2.86934 2.15121 3.06674 1.40219 2.15121 1.18664 2.33561 2.15121 3.06674 2.33561 3.16437 0 0.796393 0 0.899217 0.796393 1.18664 0.899217 1.04163 0 0.899217 0 0.998932 0.899217 1.04163 0.998932 0.991283 1.18664 2.33561 1.04163 2.46173 2.33561 3.16437 2.46173 3.17451 1.04163 2.46173 0.991283 2.53406 2.46173 3.17451 2.53406 3.12287 2.86934 3.44357 3.06674 3.40744 3.44357 3.51438 3.40744 3.41005 3.06674 3.40744 3.16437 3.32078 3.40744 3.41005 3.32078 3.33263 3.51438 3.5204 3.41005 3.51087 3.5204 3.69082 3.51087 3.80978 3.41005 3.51087 3.33263 3.55264 3.51087 3.80978 3.55264 3.95518 3.16437 3.32078 3.17451 3.21812 3.32078 3.33263 3.21812 3.29313 3.17451 3.21812 3.12287 3.12188 3.21812 3.29313 3.12188 3.28922 3.33263 3.55264 3.29313 3.62972 3.55264 3.95518 3.62972 4.10319 3.29313 3.62972 3.28922 3.72491 3.62972 4.10319 3.72491 4.23826 3.77083 3.71463 3.71463 3.66002 3.71463 3.63932 3.66002 3.69161 3.71463 3.66002 3.63927 3.69157 3.66002 3.69161 3.69157 3.86369 3.63932 3.62712 3.69161 3.81835 3.62712 3.691 3.81835 4.00343 3.69161 3.81835 3.86369 4.10498 3.81835 4.00343 4.10498 4.35784 3.63927 3.69157 3.627 3.81826 3.69157 3.86369 3.81826 4.10495 3.627 3.81826 3.69082 4.00333 3.81826 4.10495 4.00333 4.35781 3.86369 4.10498 4.10495 4.40883 4.10498 4.35784 4.40883 4.67686 4.10495 4.40883 4.35781 4.67687 4.40883 4.67686 4.67687 4.92587 3.691 3.80998 4.00343 4.20514 3.80998 3.95535 4.20514 4.39342 4.00343 4.20514 4.35784 4.58366 4.20514 4.39342 4.58366 4.76468 3.95535 4.10329 4.39342 4.5521 4.10329 4.23827 4.5521 4.67568 4.39342 4.5521 4.76468 4.89772 4.5521 4.67568 4.89772 4.98749 4.35784 4.58366 4.67686 4.88635 4.58366 4.76468 4.88635 5.03519 4.67686 4.88635 4.92587 5.1008 4.88635 5.03519 5.1008 5.2126 4.76468 4.89772 5.03519 5.13155 4.89772 4.98749 5.13155 5.18685 5.03519 5.13155 5.2126 5.27648 5.13155 5.18685 5.27648 5.30672 3.69082 4.00333 3.80978 4.20506 4.00333 4.35781 4.20506 4.58368 3.80978 4.20506 3.95518 4.3934 4.20506 4.58368 4.3934 4.76478 4.35781 4.67687 4.58368 4.88641 4.67687 4.92587 4.88641 5.10085 4.58368 4.88641 4.76478 5.03532 4.88641 5.10085 5.03532 5.2127 3.95518 4.3934 4.10319 4.55219 4.3934 4.76478 4.55219 4.89791 4.10319 4.55219 4.23826 4.67587 4.55219 4.89791 4.67587 4.98776 4.76478 5.03532 4.89791 5.13175 5.03532 5.2127 5.13175 5.27664 4.89791 5.13175 4.98776 5.18711 5.13175 5.27664 5.18711 5.30691 4.92587 5.1008 5.10085 5.23881 5.1008 5.2126 5.23881 5.31951 5.10085 5.23881 5.2127 5.31956 5.23881 5.31951 5.31956 5.3789 5.2126 5.27648 5.31951 5.36108 5.27648 5.30672 5.36108 5.37768 5.31951 5.36108 5.3789 5.40871 5.36108 5.37768 5.40871 5.42128 5.2127 5.31956 5.27664 5.36117 5.31956 5.3789 5.36117 5.40874 5.27664 5.36117 5.30691 5.37779 5.36117 5.40874 5.37779 5.42132 5.3789 5.40871 5.40874 5.4353 5.40871 5.42128 5.4353 5.45052 5.40874 5.4353 5.42132 5.45052 5.4353 5.45052 5.45052 5.47229 0 0 0.998607 1.06502 0 0 1.06502 1.08444 0.998607 1.06502 0.99166 1.02806 1.06502 1.08444 1.02806 1.12795 0 0 1.08444 1.0585 0 0 1.0585 0.998173 1.08444 1.0585 1.12795 1.26524 1.0585 0.998173 1.26524 1.41759 0.99166 1.02806 2.53387 2.56491 1.02806 1.12795 2.56491 2.56769 2.53387 2.56491 3.12268 3.03581 2.56491 2.56769 3.03581 2.93486 1.12795 1.26524 2.56769 2.55273 1.26524 1.41759 2.55273 2.52764 2.56769 2.55273 2.93486 2.83427 2.55273 2.52764 2.83427 2.74255 0 0 0.998173 0.917515 0 0 0.917515 0.829432 0.998173 0.917515 1.41759 1.56865 0.917515 0.829432 1.56865 1.70805 0 0 0.829432 0.743647 0 0 0.743647 0.666306 0.829432 0.743647 1.70805 1.83022 0.743647 0.666306 1.83022 1.93313 1.41759 1.56865 2.52764 2.49751 1.56865 1.70805 2.49751 2.46569 2.52764 2.49751 2.74255 2.66372 2.49751 2.46569 2.66372 2.59887 1.70805 1.83022 2.46569 2.43428 1.83022 1.93313 2.43428 2.40463 2.46569 2.43428 2.59887 2.54733 2.43428 2.40463 2.54733 2.50752 3.12268 3.03581 3.12208 3.04392 3.03581 2.93486 3.04392 2.98753 3.12208 3.04392 3.28961 3.31318 3.04392 2.98753 3.31318 3.35474 2.93486 2.83427 2.98753 2.95202 2.83427 2.74255 2.95202 2.93417 2.98753 2.95202 3.35474 3.40595 2.95202 2.93417 3.40595 3.46035 3.28961 3.31318 3.72517 3.8245 3.31318 3.35474 3.8245 3.91857 3.72517 3.8245 4.23827 4.35231 3.8245 3.91857 4.35231 4.44286 3.35474 3.40595 3.91857 4.00194 3.40595 3.46035 4.00194 4.07218 3.91857 4.00194 4.44286 4.51076 4.00194 4.07218 4.51076 4.55862 2.74255 2.66372 2.93417 2.92992 2.66372 2.59887 2.92992 2.93532 2.93417 2.92992 3.46035 3.51342 2.92992 2.93532 3.51342 3.56236 2.59887 2.54733 2.93532 2.94691 2.54733 2.50752 2.94691 2.96191 2.93532 2.94691 3.56236 3.60566 2.94691 2.96191 3.60566 3.64272 3.46035 3.51342 4.07218 4.12894 3.51342 3.56236 4.12894 4.1731 4.07218 4.12894 4.55862 4.58983 4.12894 4.1731 4.58983 4.60784 3.56236 3.60566 4.1731 4.2062 3.60566 3.64272 4.2062 4.23008 4.1731 4.2062 4.60784 4.61589 4.2062 4.23008 4.61589 4.6168 0 0 0.666306 0.600481 0 0 0.600481 0.547003 0.666306 0.600481 1.93313 2.01699 0.600481 0.547003 2.01699 2.08334 0 0 0.547003 0.505293 0 0 0.505293 0.474052 0.547003 0.505293 2.08334 2.13435 0.505293 0.474052 2.13435 2.17232 1.93313 2.01699 2.40463 2.37755 2.01699 2.08334 2.37755 2.35357 2.40463 2.37755 2.50752 2.47757 2.37755 2.35357 2.47757 2.45556 2.08334 2.13435 2.35357 2.333 2.13435 2.17232 2.333 2.31603 2.35357 2.333 2.45556 2.43978 2.333 2.31603 2.43978 2.42878 0 0 0.474052 0.451751 0 0 0.451751 0.436963 0.474052 0.451751 2.17232 2.19941 0.451751 0.436963 2.19941 2.2174 0 0 0.436963 0.428564 0 0 0.428564 0.425842 0.436963 0.428564 2.2174 2.22765 0.428564 0.425842 2.22765 2.23098 2.17232 2.19941 2.31603 2.30276 2.19941 2.2174 2.30276 2.29326 2.31603 2.30276 2.42878 2.42138 2.30276 2.29326 2.42138 2.4167 2.2174 2.22765 2.29326 2.28755 2.22765 2.23098 2.28755 2.28565 2.29326 2.28755 2.4167 2.41412 2.28755 2.28565 2.41412 2.41329 2.50752 2.47757 2.96191 2.97819 2.47757 2.45556 2.97819 2.99421 2.96191 2.97819 3.64272 3.67356 2.97819 2.99421 3.67356 3.69858 2.45556 2.43978 2.99421 3.0089 2.43978 2.42878 3.0089 3.02155 2.99421 3.0089 3.69858 3.71833 3.0089 3.02155 3.71833 3.73344 3.64272 3.67356 4.23008 4.24656 3.67356 3.69858 4.24656 4.25736 4.23008 4.24656 4.6168 4.61297 4.24656 4.25736 4.61297 4.60633 3.69858 3.71833 4.25736 4.26399 3.71833 3.73344 4.26399 4.26773 4.25736 4.26399 4.60633 4.59846 4.26399 4.26773 4.59846 4.59055 2.42878 2.42138 3.02155 3.0317 2.42138 2.4167 3.0317 3.03909 3.02155 3.0317 3.73344 3.7445 3.0317 3.03909 3.7445 3.75201 2.4167 2.41412 3.03909 3.04356 2.41412 2.41329 3.04356 3.04505 3.03909 3.04356 3.75201 3.75636 3.04356 3.04505 3.75636 3.75778 3.73344 3.7445 4.26773 4.2696 3.7445 3.75201 4.2696 4.2704 4.26773 4.2696 4.59055 4.58354 4.2696 4.2704 4.58354 4.57809 3.75201 3.75636 4.2704 4.27066 3.75636 3.75778 4.27066 4.27072 4.2704 4.27066 4.57809 4.57465 4.27066 4.27072 4.57465 4.57349 4.23827 4.35231 4.67568 4.76519 4.35231 4.44286 4.76519 4.82498 4.67568 4.76519 4.98749 5.04184 4.76519 4.82498 5.04184 5.06907 4.44286 4.51076 4.82498 4.86058 4.51076 4.55862 4.86058 4.87752 4.82498 4.86058 5.06907 5.07663 4.86058 4.87752 5.07663 5.07062 4.98749 5.04184 5.18685 5.2122 5.04184 5.06907 5.2122 5.2169 5.18685 5.2122 5.30672 5.31473 5.2122 5.2169 5.31473 5.30885 5.06907 5.07663 5.2169 5.2081 5.07663 5.07062 5.2081 5.19106 5.2169 5.2081 5.30885 5.29485 5.2081 5.19106 5.29485 5.27656 4.55862 4.58983 4.87752 4.88078 4.58983 4.60784 4.88078 4.8745 4.87752 4.88078 5.07062 5.05582 4.88078 4.8745 5.05582 5.03583 4.60784 4.61589 4.8745 4.86206 4.61589 4.6168 4.86206 4.84608 4.8745 4.86206 5.03583 5.01332 4.86206 4.84608 5.01332 4.99019 5.07062 5.05582 5.19106 5.16951 5.05582 5.03583 5.16951 5.14601 5.19106 5.16951 5.27656 5.25645 5.16951 5.14601 5.25645 5.23607 5.03583 5.01332 5.14601 5.12228 5.01332 4.99019 5.12228 5.09949 5.14601 5.12228 5.23607 5.2164 5.12228 5.09949 5.2164 5.19801 5.30672 5.31473 5.37768 5.37924 5.31473 5.30885 5.37924 5.37228 5.37768 5.37924 5.42128 5.4243 5.37924 5.37228 5.4243 5.42224 5.30885 5.29485 5.37228 5.36082 5.29485 5.27656 5.36082 5.34729 5.37228 5.36082 5.42224 5.41755 5.36082 5.34729 5.41755 5.41151 5.42128 5.4243 5.45052 5.4597 5.4243 5.42224 5.4597 5.46551 5.45052 5.4597 5.47229 5.48982 5.4597 5.46551 5.48982 5.50433 5.42224 5.41755 5.46551 5.46914 5.41755 5.41151 5.46914 5.47107 5.46551 5.46914 5.50433 5.51612 5.46914 5.47107 5.51612 5.52521 5.27656 5.25645 5.34729 5.33309 5.25645 5.23607 5.33309 5.31899 5.34729 5.33309 5.41151 5.40475 5.33309 5.31899 5.40475 5.39761 5.23607 5.2164 5.31899 5.30547 5.2164 5.19801 5.30547 5.29279 5.31899 5.30547 5.39761 5.39028 5.30547 5.29279 5.39028 5.38295 5.41151 5.40475 5.47107 5.4715 5.40475 5.39761 5.4715 5.47054 5.47107 5.4715 5.52521 5.5316 5.4715 5.47054 5.5316 5.53542 5.39761 5.39028 5.47054 5.46836 5.39028 5.38295 5.46836 5.46519 5.47054 5.46836 5.53542 5.53693 5.46836 5.46519 5.53693 5.53649 4.6168 4.61297 4.84608 4.82861 4.61297 4.60633 4.82861 4.81118 4.84608 4.82861 4.99019 4.96781 4.82861 4.81118 4.96781 4.94714 4.60633 4.59846 4.81118 4.79493 4.59846 4.59055 4.79493 4.7807 4.81118 4.79493 4.94714 4.92886 4.79493 4.7807 4.92886 4.91343 4.99019 4.96781 5.09949 5.07841 4.96781 4.94714 5.07841 5.05954 5.09949 5.07841 5.19801 5.18129 5.07841 5.05954 5.18129 5.16648 4.94714 4.92886 5.05954 5.04322 4.92886 4.91343 5.04322 5.02965 5.05954 5.04322 5.16648 5.15374 5.04322 5.02965 5.15374 5.14318 4.59055 4.58354 4.7807 4.7691 4.58354 4.57809 4.7691 4.76055 4.7807 4.7691 4.91343 4.90117 4.7691 4.76055 4.90117 4.89229 4.57809 4.57465 4.76055 4.75532 4.57465 4.57349 4.75532 4.75358 4.76055 4.75532 4.89229 4.88691 4.75532 4.75358 4.88691 4.88513 4.91343 4.90117 5.02965 5.01898 4.90117 4.89229 5.01898 5.01131 5.02965 5.01898 5.14318 5.13488 5.01898 5.01131 5.13488 5.12891 4.89229 4.88691 5.01131 5.00669 4.88691 4.88513 5.00669 5.00515 5.01131 5.00669 5.12891 5.12531 5.00669 5.00515 5.12531 5.12411 5.19801 5.18129 5.29279 5.28116 5.18129 5.16648 5.28116 5.27073 5.29279 5.28116 5.38295 5.37579 5.28116 5.27073 5.37579 5.36901 5.16648 5.15374 5.27073 5.26164 5.15374 5.14318 5.26164 5.25399 5.27073 5.26164 5.36901 5.36282 5.26164 5.25399 5.36282 5.35742 5.38295 5.37579 5.46519 5.46131 5.37579 5.36901 5.46131 5.45705 5.46519 5.46131 5.53649 5.53456 5.46131 5.45705 5.53456 5.53163 5.36901 5.36282 5.45705 5.45273 5.36282 5.35742 5.45273 5.44869 5.45705 5.45273 5.53163 5.52818 5.45273 5.44869 5.52818 5.52466 5.14318 5.13488 5.25399 5.24792 5.13488 5.12891 5.24792 5.24351 5.25399 5.24792 5.35742 5.35299 5.24792 5.24351 5.35299 5.3497 5.12891 5.12531 5.24351 5.24083 5.12531 5.12411 5.24083 5.23993 5.24351 5.24083 5.3497 5.34767 5.24083 5.23993 5.34767 5.34698 5.35742 5.35299 5.44869 5.44521 5.35299 5.3497 5.44521 5.44253 5.44869 5.44521 5.52466 5.52148 5.44521 5.44253 5.52148 5.51896 5.3497 5.34767 5.44253 5.44085 5.34767 5.34698 5.44085 5.44026 5.44253 5.44085 5.51896 5.51734 5.44085 5.44026 5.51734 5.51678 0 0.998932 0 1.06534 0.998932 0.991283 1.06534 1.02766 0 1.06534 0 1.0847 1.06534 1.02766 1.0847 1.12759 0.991283 2.53406 1.02766 2.56514 2.53406 3.12287 2.56514 3.03592 1.02766 2.56514 1.12759 2.56793 2.56514 3.03592 2.56793 2.93486 0 1.0847 0 1.05864 1.0847 1.12759 1.05864 1.26498 0 1.05864 0 0.99818 1.05864 1.26498 0.99818 1.41746 1.12759 2.56793 1.26498 2.55297 2.56793 2.93486 2.55297 2.83416 1.26498 2.55297 1.41746 2.52784 2.55297 2.83416 2.52784 2.74232 3.12287 3.12188 3.03592 3.04361 3.12188 3.28922 3.04361 3.31276 3.03592 3.04361 2.93486 2.98712 3.04361 3.31276 2.98712 3.35434 3.28922 3.72491 3.31276 3.82431 3.72491 4.23826 3.82431 4.35241 3.31276 3.82431 3.35434 3.91848 3.82431 4.35241 3.91848 4.44308 2.93486 2.98712 2.83416 2.95155 2.98712 3.35434 2.95155 3.40561 2.83416 2.95155 2.74232 2.93366 2.95155 3.40561 2.93366 3.46007 3.35434 3.91848 3.40561 4.00196 3.91848 4.44308 4.00196 4.51109 3.40561 4.00196 3.46007 4.07232 4.00196 4.51109 4.07232 4.55905 0 0.99818 0 0.917388 0.99818 1.41746 0.917388 1.56868 0 0.917388 0 0.829185 0.917388 1.56868 0.829185 1.70823 1.41746 2.52784 1.56868 2.49768 2.52784 2.74232 2.49768 2.66339 1.56868 2.49768 1.70823 2.46582 2.49768 2.66339 2.46582 2.59845 0 0.829185 0 0.743301 0.829185 1.70823 0.743301 1.83056 0 0.743301 0 0.665884 0.743301 1.83056 0.665884 1.9336 1.70823 2.46582 1.83056 2.43436 2.46582 2.59845 2.43436 2.54684 1.83056 2.43436 1.9336 2.40465 2.43436 2.54684 2.40465 2.507 2.74232 2.93366 2.66339 2.92941 2.93366 3.46007 2.92941 3.51324 2.66339 2.92941 2.59845 2.93483 2.92941 3.51324 2.93483 3.56228 3.46007 4.07232 3.51324 4.12919 4.07232 4.55905 4.12919 4.59033 3.51324 4.12919 3.56228 4.17345 4.12919 4.59033 4.17345 4.60839 2.59845 2.93483 2.54684 2.94647 2.93483 3.56228 2.94647 3.60568 2.54684 2.94647 2.507 2.96153 2.94647 3.60568 2.96153 3.64283 3.56228 4.17345 3.60568 4.20664 4.17345 4.60839 4.20664 4.61647 3.60568 4.20664 3.64283 4.23058 4.20664 4.61647 4.23058 4.6174 4.23826 4.67587 4.35241 4.76549 4.67587 4.98776 4.76549 5.04219 4.35241 4.76549 4.44308 4.82536 4.76549 5.04219 4.82536 5.06947 4.98776 5.18711 5.04219 5.2125 5.18711 5.30691 5.2125 5.31492 5.04219 5.2125 5.06947 5.2172 5.2125 5.31492 5.2172 5.30902 4.44308 4.82536 4.51109 4.86103 4.82536 5.06947 4.86103 5.07704 4.51109 4.86103 4.55905 4.87802 4.86103 5.07704 4.87802 5.07103 5.06947 5.2172 5.07704 5.20838 5.2172 5.30902 5.20838 5.29499 5.07704 5.20838 5.07103 5.19132 5.20838 5.29499 5.19132 5.27665 5.30691 5.37779 5.31492 5.37934 5.37779 5.42132 5.37934 5.42432 5.31492 5.37934 5.30902 5.37234 5.37934 5.42432 5.37234 5.42223 5.42132 5.45052 5.42432 5.45969 5.45052 5.47229 5.45969 5.4898 5.42432 5.45969 5.42223 5.46546 5.45969 5.4898 5.46546 5.50427 5.30902 5.37234 5.29499 5.36084 5.37234 5.42223 5.36084 5.41749 5.29499 5.36084 5.27665 5.34726 5.36084 5.41749 5.34726 5.4114 5.42223 5.46546 5.41749 5.46905 5.46546 5.50427 5.46905 5.51602 5.41749 5.46905 5.4114 5.47093 5.46905 5.51602 5.47093 5.52507 4.55905 4.87802 4.59033 4.8813 4.87802 5.07103 4.8813 5.05621 4.59033 4.8813 4.60839 4.87502 4.8813 5.05621 4.87502 5.03619 5.07103 5.19132 5.05621 5.16972 5.19132 5.27665 5.16972 5.25648 5.05621 5.16972 5.03619 5.14616 5.16972 5.25648 5.14616 5.23605 4.60839 4.87502 4.61647 4.86256 4.87502 5.03619 4.86256 5.01363 4.61647 4.86256 4.6174 4.84656 4.86256 5.01363 4.84656 4.99045 5.03619 5.14616 5.01363 5.12238 5.14616 5.23605 5.12238 5.21632 5.01363 5.12238 4.99045 5.09954 5.12238 5.21632 5.09954 5.19789 5.27665 5.34726 5.25648 5.33299 5.34726 5.4114 5.33299 5.40459 5.25648 5.33299 5.23605 5.31884 5.33299 5.40459 5.31884 5.3974 5.4114 5.47093 5.40459 5.47131 5.47093 5.52507 5.47131 5.53143 5.40459 5.47131 5.3974 5.47032 5.47131 5.53143 5.47032 5.53522 5.23605 5.31884 5.21632 5.30528 5.31884 5.3974 5.30528 5.39004 5.21632 5.30528 5.19789 5.29257 5.30528 5.39004 5.29257 5.38269 5.3974 5.47032 5.39004 5.46812 5.47032 5.53522 5.46812 5.53671 5.39004 5.46812 5.38269 5.46494 5.46812 5.53671 5.46494 5.53627 0 0.665884 0 0.600004 0.665884 1.9336 0.600004 2.01756 0 0.600004 0 0.54649 0.600004 2.01756 0.54649 2.08399 1.9336 2.40465 2.01756 2.37753 2.40465 2.507 2.37753