# vtk DataFile Version 3.0
#This file was generated by the deal.II library on 2024/1/24 at 1:20:26
ASCII
DATASET UNSTRUCTURED_GRID

POINTS 4096 double
-1 -1 0
-0.9375 -1 0
-1 -0.9375 0
-0.9375 -0.9375 0
-0.9375 -1 0
-0.875 -1 0
-0.9375 -0.9375 0
-0.875 -0.9375 0
-1 -0.9375 0
-0.9375 -0.9375 0
-1 -0.875 0
-0.9375 -0.875 0
-0.9375 -0.9375 0
-0.875 -0.9375 0
-0.9375 -0.875 0
-0.875 -0.875 0
-0.875 -1 0
-0.8125 -1 0
-0.875 -0.9375 0
-0.8125 -0.9375 0
-0.8125 -1 0
-0.75 -1 0
-0.8125 -0.9375 0
-0.75 -0.9375 0
-0.875 -0.9375 0
-0.8125 -0.9375 0
-0.875 -0.875 0
-0.8125 -0.875 0
-0.8125 -0.9375 0
-0.75 -0.9375 0
-0.8125 -0.875 0
-0.75 -0.875 0
-1 -0.875 0
-0.9375 -0.875 0
-1 -0.8125 0
-0.9375 -0.8125 0
-0.9375 -0.875 0
-0.875 -0.875 0
-0.9375 -0.8125 0
-0.875 -0.8125 0
-1 -0.8125 0
-0.9375 -0.8125 0
-1 -0.75 0
-0.9375 -0.75 0
-0.9375 -0.8125 0
-0.875 -0.8125 0
-0.9375 -0.75 0
-0.875 -0.75 0
-0.875 -0.875 0
-0.8125 -0.875 0
-0.875 -0.8125 0
-0.8125 -0.8125 0
-0.8125 -0.875 0
-0.75 -0.875 0
-0.8125 -0.8125 0
-0.75 -0.8125 0
-0.875 -0.8125 0
-0.8125 -0.8125 0
-0.875 -0.75 0
-0.8125 -0.75 0
-0.8125 -0.8125 0
-0.75 -0.8125 0
-0.8125 -0.75 0
-0.75 -0.75 0
-0.75 -1 0
-0.6875 -1 0
-0.75 -0.9375 0
-0.6875 -0.9375 0
-0.6875 -1 0
-0.625 -1 0
-0.6875 -0.9375 0
-0.625 -0.9375 0
-0.75 -0.9375 0
-0.6875 -0.9375 0
-0.75 -0.875 0
-0.6875 -0.875 0
-0.6875 -0.9375 0
-0.625 -0.9375 0
-0.6875 -0.875 0
-0.625 -0.875 0
-0.625 -1 0
-0.5625 -1 0
-0.625 -0.9375 0
-0.5625 -0.9375 0
-0.5625 -1 0
-0.5 -1 0
-0.5625 -0.9375 0
-0.5 -0.9375 0
-0.625 -0.9375 0
-0.5625 -0.9375 0
-0.625 -0.875 0
-0.5625 -0.875 0
-0.5625 -0.9375 0
-0.5 -0.9375 0
-0.5625 -0.875 0
-0.5 -0.875 0
-0.75 -0.875 0
-0.6875 -0.875 0
-0.75 -0.8125 0
-0.6875 -0.8125 0
-0.6875 -0.875 0
-0.625 -0.875 0
-0.6875 -0.8125 0
-0.625 -0.8125 0
-0.75 -0.8125 0
-0.6875 -0.8125 0
-0.75 -0.75 0
-0.6875 -0.75 0
-0.6875 -0.8125 0
-0.625 -0.8125 0
-0.6875 -0.75 0
-0.625 -0.75 0
-0.625 -0.875 0
-0.5625 -0.875 0
-0.625 -0.8125 0
-0.5625 -0.8125 0
-0.5625 -0.875 0
-0.5 -0.875 0
-0.5625 -0.8125 0
-0.5 -0.8125 0
-0.625 -0.8125 0
-0.5625 -0.8125 0
-0.625 -0.75 0
-0.5625 -0.75 0
-0.5625 -0.8125 0
-0.5 -0.8125 0
-0.5625 -0.75 0
-0.5 -0.75 0
-1 -0.75 0
-0.9375 -0.75 0
-1 -0.6875 0
-0.9375 -0.6875 0
-0.9375 -0.75 0
-0.875 -0.75 0
-0.9375 -0.6875 0
-0.875 -0.6875 0
-1 -0.6875 0
-0.9375 -0.6875 0
-1 -0.625 0
-0.9375 -0.625 0
-0.9375 -0.6875 0
-0.875 -0.6875 0
-0.9375 -0.625 0
-0.875 -0.625 0
-0.875 -0.75 0
-0.8125 -0.75 0
-0.875 -0.6875 0
-0.8125 -0.6875 0
-0.8125 -0.75 0
-0.75 -0.75 0
-0.8125 -0.6875 0
-0.75 -0.6875 0
-0.875 -0.6875 0
-0.8125 -0.6875 0
-0.875 -0.625 0
-0.8125 -0.625 0
-0.8125 -0.6875 0
-0.75 -0.6875 0
-0.8125 -0.625 0
-0.75 -0.625 0
-1 -0.625 0
-0.9375 -0.625 0
-1 -0.5625 0
-0.9375 -0.5625 0
-0.9375 -0.625 0
-0.875 -0.625 0
-0.9375 -0.5625 0
-0.875 -0.5625 0
-1 -0.5625 0
-0.9375 -0.5625 0
-1 -0.5 0
-0.9375 -0.5 0
-0.9375 -0.5625 0
-0.875 -0.5625 0
-0.9375 -0.5 0
-0.875 -0.5 0
-0.875 -0.625 0
-0.8125 -0.625 0
-0.875 -0.5625 0
-0.8125 -0.5625 0
-0.8125 -0.625 0
-0.75 -0.625 0
-0.8125 -0.5625 0
-0.75 -0.5625 0
-0.875 -0.5625 0
-0.8125 -0.5625 0
-0.875 -0.5 0
-0.8125 -0.5 0
-0.8125 -0.5625 0
-0.75 -0.5625 0
-0.8125 -0.5 0
-0.75 -0.5 0
-0.75 -0.75 0
-0.6875 -0.75 0
-0.75 -0.6875 0
-0.6875 -0.6875 0
-0.6875 -0.75 0
-0.625 -0.75 0
-0.6875 -0.6875 0
-0.625 -0.6875 0
-0.75 -0.6875 0
-0.6875 -0.6875 0
-0.75 -0.625 0
-0.6875 -0.625 0
-0.6875 -0.6875 0
-0.625 -0.6875 0
-0.6875 -0.625 0
-0.625 -0.625 0
-0.625 -0.75 0
-0.5625 -0.75 0
-0.625 -0.6875 0
-0.5625 -0.6875 0
-0.5625 -0.75 0
-0.5 -0.75 0
-0.5625 -0.6875 0
-0.5 -0.6875 0
-0.625 -0.6875 0
-0.5625 -0.6875 0
-0.625 -0.625 0
-0.5625 -0.625 0
-0.5625 -0.6875 0
-0.5 -0.6875 0
-0.5625 -0.625 0
-0.5 -0.625 0
-0.75 -0.625 0
-0.6875 -0.625 0
-0.75 -0.5625 0
-0.6875 -0.5625 0
-0.6875 -0.625 0
-0.625 -0.625 0
-0.6875 -0.5625 0
-0.625 -0.5625 0
-0.75 -0.5625 0
-0.6875 -0.5625 0
-0.75 -0.5 0
-0.6875 -0.5 0
-0.6875 -0.5625 0
-0.625 -0.5625 0
-0.6875 -0.5 0
-0.625 -0.5 0
-0.625 -0.625 0
-0.5625 -0.625 0
-0.625 -0.5625 0
-0.5625 -0.5625 0
-0.5625 -0.625 0
-0.5 -0.625 0
-0.5625 -0.5625 0
-0.5 -0.5625 0
-0.625 -0.5625 0
-0.5625 -0.5625 0
-0.625 -0.5 0
-0.5625 -0.5 0
-0.5625 -0.5625 0
-0.5 -0.5625 0
-0.5625 -0.5 0
-0.5 -0.5 0
-0.5 -1 0
-0.4375 -1 0
-0.5 -0.9375 0
-0.4375 -0.9375 0
-0.4375 -1 0
-0.375 -1 0
-0.4375 -0.9375 0
-0.375 -0.9375 0
-0.5 -0.9375 0
-0.4375 -0.9375 0
-0.5 -0.875 0
-0.4375 -0.875 0
-0.4375 -0.9375 0
-0.375 -0.9375 0
-0.4375 -0.875 0
-0.375 -0.875 0
-0.375 -1 0
-0.3125 -1 0
-0.375 -0.9375 0
-0.3125 -0.9375 0
-0.3125 -1 0
-0.25 -1 0
-0.3125 -0.9375 0
-0.25 -0.9375 0
-0.375 -0.9375 0
-0.3125 -0.9375 0
-0.375 -0.875 0
-0.3125 -0.875 0
-0.3125 -0.9375 0
-0.25 -0.9375 0
-0.3125 -0.875 0
-0.25 -0.875 0
-0.5 -0.875 0
-0.4375 -0.875 0
-0.5 -0.8125 0
-0.4375 -0.8125 0
-0.4375 -0.875 0
-0.375 -0.875 0
-0.4375 -0.8125 0
-0.375 -0.8125 0
-0.5 -0.8125 0
-0.4375 -0.8125 0
-0.5 -0.75 0
-0.4375 -0.75 0
-0.4375 -0.8125 0
-0.375 -0.8125 0
-0.4375 -0.75 0
-0.375 -0.75 0
-0.375 -0.875 0
-0.3125 -0.875 0
-0.375 -0.8125 0
-0.3125 -0.8125 0
-0.3125 -0.875 0
-0.25 -0.875 0
-0.3125 -0.8125 0
-0.25 -0.8125 0
-0.375 -0.8125 0
-0.3125 -0.8125 0
-0.375 -0.75 0
-0.3125 -0.75 0
-0.3125 -0.8125 0
-0.25 -0.8125 0
-0.3125 -0.75 0
-0.25 -0.75 0
-0.25 -1 0
-0.1875 -1 0
-0.25 -0.9375 0
-0.1875 -0.9375 0
-0.1875 -1 0
-0.125 -1 0
-0.1875 -0.9375 0
-0.125 -0.9375 0
-0.25 -0.9375 0
-0.1875 -0.9375 0
-0.25 -0.875 0
-0.1875 -0.875 0
-0.1875 -0.9375 0
-0.125 -0.9375 0
-0.1875 -0.875 0
-0.125 -0.875 0
-0.125 -1 0
-0.0625 -1 0
-0.125 -0.9375 0
-0.0625 -0.9375 0
-0.0625 -1 0
0 -1 0
-0.0625 -0.9375 0
0 -0.9375 0
-0.125 -0.9375 0
-0.0625 -0.9375 0
-0.125 -0.875 0
-0.0625 -0.875 0
-0.0625 -0.9375 0
0 -0.9375 0
-0.0625 -0.875 0
0 -0.875 0
-0.25 -0.875 0
-0.1875 -0.875 0
-0.25 -0.8125 0
-0.1875 -0.8125 0
-0.1875 -0.875 0
-0.125 -0.875 0
-0.1875 -0.8125 0
-0.125 -0.8125 0
-0.25 -0.8125 0
-0.1875 -0.8125 0
-0.25 -0.75 0
-0.1875 -0.75 0
-0.1875 -0.8125 0
-0.125 -0.8125 0
-0.1875 -0.75 0
-0.125 -0.75 0
-0.125 -0.875 0
-0.0625 -0.875 0
-0.125 -0.8125 0
-0.0625 -0.8125 0
-0.0625 -0.875 0
0 -0.875 0
-0.0625 -0.8125 0
0 -0.8125 0
-0.125 -0.8125 0
-0.0625 -0.8125 0
-0.125 -0.75 0
-0.0625 -0.75 0
-0.0625 -0.8125 0
0 -0.8125 0
-0.0625 -0.75 0
0 -0.75 0
-0.5 -0.75 0
-0.4375 -0.75 0
-0.5 -0.6875 0
-0.4375 -0.6875 0
-0.4375 -0.75 0
-0.375 -0.75 0
-0.4375 -0.6875 0
-0.375 -0.6875 0
-0.5 -0.6875 0
-0.4375 -0.6875 0
-0.5 -0.625 0
-0.4375 -0.625 0
-0.4375 -0.6875 0
-0.375 -0.6875 0
-0.4375 -0.625 0
-0.375 -0.625 0
-0.375 -0.75 0
-0.3125 -0.75 0
-0.375 -0.6875 0
-0.3125 -0.6875 0
-0.3125 -0.75 0
-0.25 -0.75 0
-0.3125 -0.6875 0
-0.25 -0.6875 0
-0.375 -0.6875 0
-0.3125 -0.6875 0
-0.375 -0.625 0
-0.3125 -0.625 0
-0.3125 -0.6875 0
-0.25 -0.6875 0
-0.3125 -0.625 0
-0.25 -0.625 0
-0.5 -0.625 0
-0.4375 -0.625 0
-0.5 -0.5625 0
-0.4375 -0.5625 0
-0.4375 -0.625 0
-0.375 -0.625 0
-0.4375 -0.5625 0
-0.375 -0.5625 0
-0.5 -0.5625 0
-0.4375 -0.5625 0
-0.5 -0.5 0
-0.4375 -0.5 0
-0.4375 -0.5625 0
-0.375 -0.5625 0
-0.4375 -0.5 0
-0.375 -0.5 0
-0.375 -0.625 0
-0.3125 -0.625 0
-0.375 -0.5625 0
-0.3125 -0.5625 0
-0.3125 -0.625 0
-0.25 -0.625 0
-0.3125 -0.5625 0
-0.25 -0.5625 0
-0.375 -0.5625 0
-0.3125 -0.5625 0
-0.375 -0.5 0
-0.3125 -0.5 0
-0.3125 -0.5625 0
-0.25 -0.5625 0
-0.3125 -0.5 0
-0.25 -0.5 0
-0.25 -0.75 0
-0.1875 -0.75 0
-0.25 -0.6875 0
-0.1875 -0.6875 0
-0.1875 -0.75 0
-0.125 -0.75 0
-0.1875 -0.6875 0
-0.125 -0.6875 0
-0.25 -0.6875 0
-0.1875 -0.6875 0
-0.25 -0.625 0
-0.1875 -0.625 0
-0.1875 -0.6875 0
-0.125 -0.6875 0
-0.1875 -0.625 0
-0.125 -0.625 0
-0.125 -0.75 0
-0.0625 -0.75 0
-0.125 -0.6875 0
-0.0625 -0.6875 0
-0.0625 -0.75 0
0 -0.75 0
-0.0625 -0.6875 0
0 -0.6875 0
-0.125 -0.6875 0
-0.0625 -0.6875 0
-0.125 -0.625 0
-0.0625 -0.625 0
-0.0625 -0.6875 0
0 -0.6875 0
-0.0625 -0.625 0
0 -0.625 0
-0.25 -0.625 0
-0.1875 -0.625 0
-0.25 -0.5625 0
-0.1875 -0.5625 0
-0.1875 -0.625 0
-0.125 -0.625 0
-0.1875 -0.5625 0
-0.125 -0.5625 0
-0.25 -0.5625 0
-0.1875 -0.5625 0
-0.25 -0.5 0
-0.1875 -0.5 0
-0.1875 -0.5625 0
-0.125 -0.5625 0
-0.1875 -0.5 0
-0.125 -0.5 0
-0.125 -0.625 0
-0.0625 -0.625 0
-0.125 -0.5625 0
-0.0625 -0.5625 0
-0.0625 -0.625 0
0 -0.625 0
-0.0625 -0.5625 0
0 -0.5625 0
-0.125 -0.5625 0
-0.0625 -0.5625 0
-0.125 -0.5 0
-0.0625 -0.5 0
-0.0625 -0.5625 0
0 -0.5625 0
-0.0625 -0.5 0
0 -0.5 0
-1 -0.5 0
-0.9375 -0.5 0
-1 -0.4375 0
-0.9375 -0.4375 0
-0.9375 -0.5 0
-0.875 -0.5 0
-0.9375 -0.4375 0
-0.875 -0.4375 0
-1 -0.4375 0
-0.9375 -0.4375 0
-1 -0.375 0
-0.9375 -0.375 0
-0.9375 -0.4375 0
-0.875 -0.4375 0
-0.9375 -0.375 0
-0.875 -0.375 0
-0.875 -0.5 0
-0.8125 -0.5 0
-0.875 -0.4375 0
-0.8125 -0.4375 0
-0.8125 -0.5 0
-0.75 -0.5 0
-0.8125 -0.4375 0
-0.75 -0.4375 0
-0.875 -0.4375 0
-0.8125 -0.4375 0
-0.875 -0.375 0
-0.8125 -0.375 0
-0.8125 -0.4375 0
-0.75 -0.4375 0
-0.8125 -0.375 0
-0.75 -0.375 0
-1 -0.375 0
-0.9375 -0.375 0
-1 -0.3125 0
-0.9375 -0.3125 0
-0.9375 -0.375 0
-0.875 -0.375 0
-0.9375 -0.3125 0
-0.875 -0.3125 0
-1 -0.3125 0
-0.9375 -0.3125 0
-1 -0.25 0
-0.9375 -0.25 0
-0.9375 -0.3125 0
-0.875 -0.3125 0
-0.9375 -0.25 0
-0.875 -0.25 0
-0.875 -0.375 0
-0.8125 -0.375 0
-0.875 -0.3125 0
-0.8125 -0.3125 0
-0.8125 -0.375 0
-0.75 -0.375 0
-0.8125 -0.3125 0
-0.75 -0.3125 0
-0.875 -0.3125 0
-0.8125 -0.3125 0
-0.875 -0.25 0
-0.8125 -0.25 0
-0.8125 -0.3125 0
-0.75 -0.3125 0
-0.8125 -0.25 0
-0.75 -0.25 0
-0.75 -0.5 0
-0.6875 -0.5 0
-0.75 -0.4375 0
-0.6875 -0.4375 0
-0.6875 -0.5 0
-0.625 -0.5 0
-0.6875 -0.4375 0
-0.625 -0.4375 0
-0.75 -0.4375 0
-0.6875 -0.4375 0
-0.75 -0.375 0
-0.6875 -0.375 0
-0.6875 -0.4375 0
-0.625 -0.4375 0
-0.6875 -0.375 0
-0.625 -0.375 0
-0.625 -0.5 0
-0.5625 -0.5 0
-0.625 -0.4375 0
-0.5625 -0.4375 0
-0.5625 -0.5 0
-0.5 -0.5 0
-0.5625 -0.4375 0
-0.5 -0.4375 0
-0.625 -0.4375 0
-0.5625 -0.4375 0
-0.625 -0.375 0
-0.5625 -0.375 0
-0.5625 -0.4375 0
-0.5 -0.4375 0
-0.5625 -0.375 0
-0.5 -0.375 0
-0.75 -0.375 0
-0.6875 -0.375 0
-0.75 -0.3125 0
-0.6875 -0.3125 0
-0.6875 -0.375 0
-0.625 -0.375 0
-0.6875 -0.3125 0
[...]
POINT_DATA 4096
SCALARS u_vec double 1
LOOKUP_TABLE default
0 0 0 0.0612727 0 0 0.0612727 1.27605 0 0.0612727 0 1.27599 0.0612727 1.27605 1.27599 0.929007 0 0 1.27605 0.741477 0 0 0.741477 1.34071 1.27605 0.741477 0.929007 1.87339 0.741477 1.34071 1.87339 2.01348 0 1.27599 0 0.741569 1.27599 0.929007 0.741569 1.8734 0 0.741569 0 1.34063 0.741569 1.8734 1.34063 2.01351 0.929007 1.87339 1.8734 3.35526 1.87339 2.01348 3.35526 3.25515 1.8734 3.35526 2.01351 3.25519 3.35526 3.25515 3.25519 3.59486 0 0 1.34071 1.74839 0 0 1.74839 1.40212 1.34071 1.74839 2.01348 2.15371 1.74839 1.40212 2.15371 2.45704 0 0 1.40212 1.14795 0 0 1.14795 1.26697 1.40212 1.14795 2.45704 2.67462 1.14795 1.26697 2.67462 2.74357 2.01348 2.15371 3.25515 2.9935 2.15371 2.45704 2.9935 3.18268 3.25515 2.9935 3.59486 3.68974 2.9935 3.18268 3.68974 3.94992 2.45704 2.67462 3.18268 3.52634 2.67462 2.74357 3.52634 3.75534 3.18268 3.52634 3.94992 4.24892 3.52634 3.75534 4.24892 4.44121 0 1.34063 0 1.74837 1.34063 2.01351 1.74837 2.1537 0 1.74837 0 1.40224 1.74837 2.1537 1.40224 2.45697 2.01351 3.25519 2.1537 2.99353 3.25519 3.59486 2.99353 3.68976 2.1537 2.99353 2.45697 3.18266 2.99353 3.68976 3.18266 3.94993 0 1.40224 0 1.14802 1.40224 2.45697 1.14802 2.67455 0 1.14802 0 1.26689 1.14802 2.67455 1.26689 2.74354 2.45697 3.18266 2.67455 3.5263 3.18266 3.94993 3.5263 4.2489 2.67455 3.5263 2.74354 3.75531 3.5263 4.2489 3.75531 4.44118 3.59486 3.68974 3.68976 4.19351 3.68974 3.94992 4.19351 4.54955 3.68976 4.19351 3.94993 4.54955 4.19351 4.54955 4.54955 4.89465 3.94992 4.24892 4.54955 4.76861 4.24892 4.44121 4.76861 4.88094 4.54955 4.76861 4.89465 5.07473 4.76861 4.88094 5.07473 5.17834 3.94993 4.54955 4.2489 4.76861 4.54955 4.89465 4.76861 5.07473 4.2489 4.76861 4.44118 4.88094 4.76861 5.07473 4.88094 5.17835 4.89465 5.07473 5.07473 5.26567 5.07473 5.17834 5.26567 5.39951 5.07473 5.26567 5.17835 5.39951 5.26567 5.39951 5.39951 5.55768 0 0 1.26697 1.52126 0 0 1.52126 1.70192 1.26697 1.52126 2.74357 2.72841 1.52126 1.70192 2.72841 2.69687 0 0 1.70192 1.75487 0 0 1.75487 1.71417 1.70192 1.75487 2.69687 2.67694 1.75487 1.71417 2.67694 2.66984 2.74357 2.72841 3.75534 3.83005 2.72841 2.69687 3.83005 3.81449 3.75534 3.83005 4.44121 4.51146 3.83005 3.81449 4.51146 4.50758 2.69687 2.67694 3.81449 3.76956 2.67694 2.66984 3.76956 3.72598 3.81449 3.76956 4.50758 4.47517 3.76956 3.72598 4.47517 4.43945 0 0 1.71417 1.63487 0 0 1.63487 1.55862 1.71417 1.63487 2.66984 2.67004 1.63487 1.55862 2.67004 2.67289 0 0 1.55862 1.5072 0 0 1.5072 1.48933 1.55862 1.5072 2.67289 2.6755 1.5072 1.48933 2.6755 2.6765 2.66984 2.67004 3.72598 3.69346 2.67004 2.67289 3.69346 3.67251 3.72598 3.69346 4.43945 4.41026 3.69346 3.67251 4.41026 4.38993 2.67289 2.6755 3.67251 3.6611 2.6755 2.6765 3.6611 3.6575 3.67251 3.6611 4.38993 4.37817 3.6611 3.6575 4.37817 4.37434 4.44121 4.51146 4.88094 4.92855 4.51146 4.50758 4.92855 4.94366 4.88094 4.92855 5.17834 5.24512 4.92855 4.94366 5.24512 5.28681 4.50758 4.47517 4.94366 4.94411 4.47517 4.43945 4.94411 4.9383 4.94366 4.94411 5.28681 5.3081 4.94411 4.9383 5.3081 5.31407 5.17834 5.24512 5.39951 5.49032 5.24512 5.28681 5.49032 5.54203 5.39951 5.49032 5.55768 5.65413 5.49032 5.54203 5.65413 5.69823 5.28681 5.3081 5.54203 5.56205 5.3081 5.31407 5.56205 5.56087 5.54203 5.56205 5.69823 5.70554 5.56205 5.56087 5.70554 5.69179 4.43945 4.41026 4.9383 4.93037 4.41026 4.38993 4.93037 4.92285 4.9383 4.93037 5.31407 5.3107 4.93037 4.92285 5.3107 5.30373 4.38993 4.37817 4.92285 4.91757 4.37817 4.37434 4.91757 4.91568 4.92285 4.91757 5.30373 5.29767 4.91757 4.91568 5.29767 5.29534 5.31407 5.3107 5.56087 5.54889 5.3107 5.30373 5.54889 5.53452 5.56087 5.54889 5.69179 5.66968 5.54889 5.53452 5.66968 5.64822 5.30373 5.29767 5.53452 5.52363 5.29767 5.29534 5.52363 5.51964 5.53452 5.52363 5.64822 5.63322 5.52363 5.51964 5.63322 5.62788 0 1.26689 0 1.52109 1.26689 2.74354 1.52109 2.72845 0 1.52109 0 1.70176 1.52109 2.72845 1.70176 2.69695 2.74354 3.75531 2.72845 3.83003 3.75531 4.44118 3.83003 4.51144 2.72845 3.83003 2.69695 3.8145 3.83003 4.51144 3.8145 4.50757 0 1.70176 0 1.75481 1.70176 2.69695 1.75481 2.67704 0 1.75481 0 1.71421 1.75481 2.67704 1.71421 2.66993 2.69695 3.8145 2.67704 3.76958 3.8145 4.50757 3.76958 4.47518 2.67704 3.76958 2.66993 3.72601 3.76958 4.47518 3.72601 4.43948 4.44118 4.88094 4.51144 4.92855 4.88094 5.17835 4.92855 5.24514 4.51144 4.92855 4.50757 4.94368 4.92855 5.24514 4.94368 5.28684 5.17835 5.39951 5.24514 5.49034 5.39951 5.55768 5.49034 5.65414 5.24514 5.49034 5.28684 5.54204 5.49034 5.65414 5.54204 5.69823 4.50757 4.94368 4.47518 4.94414 4.94368 5.28684 4.94414 5.30813 4.47518 4.94414 4.43948 4.93834 4.94414 5.30813 4.93834 5.31409 5.28684 5.54204 5.30813 5.56206 5.54204 5.69823 5.56206 5.70554 5.30813 5.56206 5.31409 5.56087 5.56206 5.70554 5.56087 5.69179 0 1.71421 0 1.635 1.71421 2.66993 1.635 2.67011 0 1.635 0 1.5588 1.635 2.67011 1.5588 2.67293 2.66993 3.72601 2.67011 3.69349 3.72601 4.43948 3.69349 4.41031 2.67011 3.69349 2.67293 3.67253 3.69349 4.41031 3.67253 4.38997 0 1.5588 0 1.50741 1.5588 2.67293 1.50741 2.67552 0 1.50741 0 1.48955 1.50741 2.67552 1.48955 2.6765 2.67293 3.67253 2.67552 3.66112 3.67253 4.38997 3.66112 4.37821 2.67552 3.66112 2.6765 3.65752 3.66112 4.37821 3.65752 4.37437 4.43948 4.93834 4.41031 4.93041 4.93834 5.31409 4.93041 5.31072 4.41031 4.93041 4.38997 4.92289 4.93041 5.31072 4.92289 5.30374 5.31409 5.56087 5.31072 5.54889 5.56087 5.69179 5.54889 5.66967 5.31072 5.54889 5.30374 5.53451 5.54889 5.66967 5.53451 5.64821 4.38997 4.92289 4.37821 4.91759 4.92289 5.30374 4.91759 5.29768 4.37821 4.91759 4.37437 4.91569 4.91759 5.29768 4.91569 5.29534 5.30374 5.53451 5.29768 5.52362 5.53451 5.64821 5.52362 5.63321 5.29768 5.52362 5.29534 5.51963 5.52362 5.63321 5.51963 5.62787 5.55768 5.65413 5.65414 5.74135 5.65413 5.69823 5.74135 5.7712 5.65414 5.74135 5.69823 5.7712 5.74135 5.7712 5.7712 5.78816 5.69823 5.70554 5.7712 5.76546 5.70554 5.69179 5.76546 5.74191 5.7712 5.76546 5.78816 5.77337 5.76546 5.74191 5.77337 5.74421 5.69823 5.7712 5.70554 5.76546 5.7712 5.78816 5.76546 5.77337 5.70554 5.76546 5.69179 5.7419 5.76546 5.77337 5.7419 5.74421 5.78816 5.77337 5.77337 5.75339 5.77337 5.74421 5.75339 5.72149 5.77337 5.75339 5.74421 5.72149 5.75339 5.72149 5.72149 5.68821 5.69179 5.66968 5.74191 5.71318 5.66968 5.64822 5.71318 5.68761 5.74191 5.71318 5.74421 5.71221 5.71318 5.68761 5.71221 5.68479 5.64822 5.63322 5.68761 5.6704 5.63322 5.62788 5.6704 5.66436 5.68761 5.6704 5.68479 5.66662 5.6704 5.66436 5.66662 5.66029 5.74421 5.71221 5.72149 5.68799 5.71221 5.68479 5.68799 5.6597 5.72149 5.68799 5.68821 5.65384 5.68799 5.6597 5.65384 5.62489 5.68479 5.66662 5.6597 5.64104 5.66662 5.66029 5.64104 5.63454 5.6597 5.64104 5.62489 5.60578 5.64104 5.63454 5.60578 5.59912 5.69179 5.7419 5.66967 5.71317 5.7419 5.74421 5.71317 5.71221 5.66967 5.71317 5.64821 5.68761 5.71317 5.71221 5.68761 5.68479 5.74421 5.72149 5.71221 5.68799 5.72149 5.68821 5.68799 5.65384 5.71221 5.68799 5.68479 5.6597 5.68799 5.65384 5.6597 5.62489 5.64821 5.68761 5.63321 5.6704 5.68761 5.68479 5.6704 5.66662 5.63321 5.6704 5.62787 5.66436 5.6704 5.66662 5.66436 5.66029 5.68479 5.6597 5.66662 5.64104 5.6597 5.62489 5.64104 5.60578 5.66662 5.64104 5.66029 5.63454 5.64104 5.60578 5.63454 5.59912 5.68821 5.65384 5.65384 5.61872 5.65384 5.62489 5.61872 5.58909 5.65384 5.61872 5.62489 5.58909 5.61872 5.58909 5.58909 5.55882 5.62489 5.60578 5.58909 5.56949 5.60578 5.59912 5.56949 5.56265 5.58909 5.56949 5.55882 5.53876 5.56949 5.56265 5.53876 5.53175 5.62489 5.58909 5.60578 5.56949 5.58909 5.55882 5.56949 5.53876 5.60578 5.56949 5.59912 5.56265 5.56949 5.53876 5.56265 5.53175 5.55882 5.53876 5.53876 5.51836 5.53876 5.53175 5.51836 5.51124 5.53876 5.51836 5.53175 5.51124 5.51836 5.51124 5.51124 5.50406 0 0 1.48933 1.50718 0 0 1.50718 1.55858 1.48933 1.50718 2.6765 2.67552 1.50718 1.55858 2.67552 2.67293 0 0 1.55858 1.63482 0 0 1.63482 1.71412 1.55858 1.63482 2.67293 2.67009 1.63482 1.71412 2.67009 2.6699 2.6765 2.67552 3.6575 3.66109 2.67552 2.67293 3.66109 3.67249 3.6575 3.66109 4.37434 4.37817 3.66109 3.67249 4.37817 4.38993 2.67293 2.67009 3.67249 3.69344 2.67009 2.6699 3.69344 3.72594 3.67249 3.69344 4.38993 4.41026 3.69344 3.72594 4.41026 4.43943 0 0 1.71412 1.75486 0 0 1.75486 1.70198 1.71412 1.75486 2.6699 2.677 1.75486 1.70198 2.677 2.69688 0 0 1.70198 1.52142 0 0 1.52142 1.26712 1.70198 1.52142 2.69688 2.72836 1.52142 1.26712 2.72836 2.74347 2.6699 2.677 3.72594 3.76951 2.677 2.69688 3.76951 3.81443 3.72594 3.76951 4.43943 4.47512 3.76951 3.81443 4.47512 4.50752 2.69688 2.72836 3.81443 3.83001 2.72836 2.74347 3.83001 3.75538 3.81443 3.83001 4.50752 4.51142 3.83001 3.75538 4.51142 4.44122 4.37434 4.37817 4.91568 4.91758 4.37817 4.38993 4.91758 4.92288 4.91568 4.91758 5.29534 5.29769 4.91758 4.92288 5.29769 5.30376 4.38993 4.41026 4.92288 4.9304 4.41026 4.43943 4.9304 4.93833 4.92288 4.9304 5.30376 5.31074 4.9304 4.93833 5.31074 5.31412 5.29534 5.29769 5.51964 5.52364 5.29769 5.30376 5.52364 5.53453 5.51964 5.52364 5.62788 5.63322 5.52364 5.53453 5.63322 5.64823 5.30376 5.31074 5.53453 5.54891 5.31074 5.31412 5.54891 5.56091 5.53453 5.54891 5.64823 5.66969 5.54891 5.56091 5.66969 5.69181 4.43943 4.47512 4.93833 4.94413 4.47512 4.50752 4.94413 4.94366 4.93833 4.94413 5.31412 5.30816 4.94413 4.94366 5.30816 5.28687 4.50752 4.51142 4.94366 4.92852 4.51142 4.44122 4.92852 4.88091 4.94366 4.92852 5.28687 5.24514 4.92852 4.88091 5.24514 5.17832 5.31412 5.30816 5.56091 5.5621 5.30816 5.28687 5.5621 5.54209 5.56091 5.5621 5.69181 5.70557 5.5621 5.54209 5.70557 5.69828 5.28687 5.24514 5.54209 5.49038 5.24514 5.17832 5.49038 5.39953 5.54209 5.49038 5.69828 5.65419 5.49038 5.39953 5.65419 5.55773 0 0 1.26712 1.14792 0 0 1.14792 1.40193 1.26712 1.14792 2.74347 2.67458 1.14792 1.40193 2.67458 2.45719 0 0 1.40193 1.74829 0 0 1.74829 1.34074 1.40193 1.74829 2.45719 2.15394 1.74829 1.34074 2.15394 2.01323 2.74347 2.67458 3.75538 3.52647 2.67458 2.45719 3.52647 3.18284 3.75538 3.52647 4.44122 4.249 3.52647 3.18284 4.249 3.95003 2.45719 2.15394 3.18284 2.99362 2.15394 2.01323 2.99362 3.25526 3.18284 2.99362 3.95003 3.68978 2.99362 3.25526 3.68978 3.59488 0 0 1.34074 0.741354 0 0 0.741354 1.27579 1.34074 0.741354 2.01323 1.87303 0.741354 1.27579 1.87303 0.930102 0 0 1.27579 0.0612648 0 0 0.0612648 0 1.27579 0.0612648 0.930102 1.27584 0.0612648 0 1.27584 0 2.01323 1.87303 3.25526 3.35538 1.87303 0.930102 3.35538 1.87301 3.25526 3.35538 3.59488 3.25522 3.35538 1.87301 3.25522 2.0132 0.930102 1.27584 1.87301 0.741271 1.27584 0 0.741271 0 1.87301 0.741271 2.0132 1.34082 0.741271 0 1.34082 0 4.44122 4.249 4.88091 4.7686 4.249 3.95003 4.7686 4.54958 4.88091 4.7686 5.17832 5.07468 4.7686 4.54958 5.07468 4.89462 3.95003 3.68978 4.54958 4.19355 3.68978 3.59488 4.19355 3.68976 4.54958 4.19355 4.89462 4.54958 4.19355 3.68976 4.54958 3.95002 5.17832 5.07468 5.39953 5.26565 5.07468 4.89462 5.26565 5.07468 5.39953 5.26565 5.55773 5.39952 5.26565 5.07468 5.39952 5.17831 4.89462 4.54958 5.07468 4.76861 4.54958 3.95002 4.76861 4.24902 5.07468 4.76861 5.17831 4.88091 4.76861 4.24902 4.88091 4.44125 3.59488 3.25522 3.68976 2.9936 3.25522 2.0132 2.9936 2.15397 3.68976 2.9936 3.95002 3.18286 2.9936 2.15397 3.18286 2.45727 2.0132 1.34082 2.15397 1.74831 1.34082 0 1.74831 0 2.15397 1.74831 2.45727 1.40182 1.74831 0 1.40182 0 3.95002 3.18286 4.24902 3.52651 3.18286 2.45727 3.52651 2.67464 4.24902 3.52651 4.44125 3.75541 3.52651 2.67464 3.75541 2.74348 2.45727 1.40182 2.67464 1.14785 1.40182 0 1.14785 0 2.67464 1.14785 2.74348 1.26719 1.14785 0 1.26719 0 5.62788 5.63322 5.66436 5.6704 5.63322 5.64823 5.6704 5.68762 5.66436 5.6704 5.66029 5.66663 5.6704 5.68762 5.66663 5.68479 5.64823 5.66969 5.68762 5.71318 5.66969 5.69181 5.71318 5.74192 5.68762 5.71318 5.68479 5.71221 5.71318 5.74192 5.71221 5.74422 5.66029 5.66663 5.63454 5.64104 5.66663 5.68479 5.64104 5.65971 5.63454 5.64104 5.59912 5.60578 5.64104 5.65971 5.60578 5.62489 5.68479 5.71221 5.65971 5.688 5.71221 5.74422 5.688 5.72149 5.65971 5.688 5.62489 5.65384 5.688 5.72149 5.65384 5.68821 5.69181 5.70557 5.74192 5.76548 5.70557 5.69828 5.76548 5.77124 5.74192 5.76548 5.74422 5.77338 5.76548 5.77124 5.77338 5.78819 5.69828 5.65419 5.77124 5.7414 5.65419 5.55773 5.7414 5.65419 5.77124 5.7414 5.78819 5.77124 5.7414 5.65419 5.77124 5.69829 5.74422 5.77338 5.72149 5.7534 5.77338 5.78819 5.7534 5.77338 5.72149 5.7534 5.68821 5.72149 5.7534 5.77338 5.72149 5.74422 5.78819 5.77124 5.77338 5.76548 5.77124 5.69829 5.76548 5.70558 5.77338 5.76548 5.74422 5.74192 5.76548 5.70558 5.74192 5.69182 5.59912 5.60578 5.56265 5.56949 5.60578 5.62489 5.56949 5.58909 5.56265 5.56949 5.53175 5.53876 5.56949 5.58909 5.53876 5.55882 5.62489 5.65384 5.58909 5.61872 5.65384 5.68821 5.61872 5.65384 5.58909 5.61872 5.55882 5.58909 5.61872 5.65384 5.58909 5.62488 5.53175 5.53876 5.51124 5.51836 5.53876 5.55882 5.51836 5.53876 5.51124 5.51836 5.50406 5.51123 5.51836 5.53876 5.51123 5.53175 5.55882 5.58909 5.53876 5.56949 5.58909 5.62488 5.56949 5.60577 5.53876 5.56949 5.53175 5.56265 5.56949 5.60577 5.56265 5.59911 5.68821 5.72149 5.65384 5.68799 5.72149 5.74422 5.68799 5.71221 5.65384 5.68799 5.62488 5.6597 5.68799 5.71221 5.6597 5.68479 5.74422 5.74192 5.71221 5.71318 5.74192 5.69182 5.71318 5.6697 5.71221 5.71318 5.68479 5.68761 5.71318 5.6697 5.68761 5.64823 5.62488 5.6597 5.60577 5.64103 5.6597 5.68479 5.64103 5.66662 5.60577 5.64103 5.59911 5.63453 5.64103 5.66662 5.63453 5.66028 5.68479 5.68761 5.66662 5.6704 5.68761 5.64823 5.6704 5.63322 5.66662 5.6704 5.66028 5.66436 5.6704 5.63322 5.66436 5.62788 5.55773 5.39952 5.65419 5.49037 5.39952 5.17831 5.49037 5.24512 5.65419 5.49037 5.69829 5.54209 5.49037 5.24512 5.54209 5.28685 5.17831 4.88091 5.24512 4.92851 4.88091 4.44125 4.92851 4.51144 5.24512 4.92851 5.28685 4.94364 4.92851 4.51144 4.94364 4.50752 5.69829 5.54209 5.70558 5.5621 5.54209 5.28685 5.5621 5.30815 5.70558 5.5621 5.69182 5.56092 5.5621 5.30815 5.56092 5.31411 5.28685 4.94364 5.30815 4.9441 4.94364 4.50752 4.9441 4.4751 5.30815 4.9441 5.31411 4.9383 4.9441 4.4751 4.9383 4.43939 4.44125 3.75541 4.51144 3.83002 3.75541 2.74348 3.83002 2.72832 4.51144 3.83002 4.50752 3.81442 3.83002 2.72832 3.81442 2.69681 2.74348 1.26719 2.72832 1.52158 1.26719 0 1.52158 0 2.72832 1.52158 2.69681 1.70213 1.52158 0 1.70213 0 4.50752 3.81442 4.4751 3.76948 3.81442 2.69681 3.76948 2.67691 4.4751 3.76948 4.43939 3.72591 3.76948 2.67691 3.72591 2.66983 2.69681 1.70213 2.67691 1.75492 1.70213 0 1.75492 0 2.67691 1.75492 2.66983 1.71408 1.75492 0 1.71408 0 5.69182 5.56092 5.6697 5.54892 5.56092 5.31411 5.54892 5.31074 5.6697 5.54892 5.64823 5.53454 5.54892 5.31074 5.53454 5.30376 5.31411 4.9383 5.31074 4.93037 4.9383 4.43939 4.93037 4.41021 5.31074 4.93037 5.30376 4.92286 4.93037 4.41021 4.92286 4.38988 5.64823 5.53454 5.63322 5.52365 5.53454 5.30376 5.52365 5.29769 5.63322 5.52365 5.62788 5.51965 5.52365 5.29769 5.51965 5.29535 5.30376 4.92286 5.29769 4.91756 4.92286 4.38988 4.91756 4.37812 5.29769 4.91756 5.29535 4.91566 4.91756 4.37812 4.91566 4.37429 4.43939 3.72591 4.41021 3.69341 3.72591 2.66983 3.69341 2.67004 4.41021 3.69341 4.38988 3.67246 3.69341 2.67004 3.67246 2.6729 2.66983 1.71408 2.67004 1.6347 1.71408 0 1.6347 0 2.67004 1.6347 2.6729 1.55839 1.6347 0 1.55839 0 4.38988 3.67246 4.37812 3.66106 3.67246 2.6729 3.66106 2.67551 4.37812 3.66106 4.37429 3.65747 3.66106 2.67551 3.65747 2.67651 2.6729 1.55839 2.67551 1.50696 1.55839 0 1.50696 0 2.67551 1.50696 2.67651 1.48909 1.50696 0 1.48909 0 0 1.48955 0 1.50739 1.48955 2.6765 1.50739 2.67551 0 1.50739 0 1.55877 1.50739 2.67551 1.55877 2.6729 2.6765 3.65752 2.67551 3.66111 3.65752 4.37437 3.66111 4.3782 2.67551 3.66111 2.6729 3.67252 3.66111 4.3782 3.67252 4.38996 0 1.55877 0 1.63497 1.55877 2.6729 1.63497 2.67006 0 1.63497 0 1.7142 1.63497 2.67006 1.7142 2.66987 2.6729 3.67252 2.67006 3.69348 3.67252 4.38996 3.69348 4.41029 2.67006 3.69348 2.66987 3.726 3.69348 4.41029 3.726 4.43947 4.37437 4.91569 4.3782 4.91759 4.91569 5.29534 4.91759 5.29768 4.3782 4.91759 4.38996 4.92288 4.91759 5.29768 4.92288 5.30374 5.29534 5.51963 5.29768 5.52363 5.51963 5.62787 5.52363 5.63322 5.29768 5.52363 5.30374 5.53452 5.52363 5.63322 5.53452 5.64822 4.38996 4.92288 4.41029 4.93039 4.92288 5.30374 4.93039 5.31071 4.41029 4.93039 4.43947 4.93832 4.93039 5.31071 4.93832 5.31408 5.30374 5.53452 5.31071 5.5489 5.53452 5.64822 5.5489 5.66969 5.31071 5.5489 5.31408 5.56088 5.5489 5.66969 5.56088 5.6918 0 1.7142 0 1.75482 1.7142 2.66987 1.75482 2.67699 0 1.75482 0 1.7018 1.75482 2.67699 1.7018 2.69691 2.66987 3.726 2.67699 3.76958 3.726 4.43947 3.76958 4.47518 2.67699 3.76958 2.69691 3.8145 3.76958 4.47518 3.8145 4.50757 0 1.7018 0 1.52112 1.7018 2.69691 1.52112 2.72844 0 1.52112 0 1.26691 1.52112 2.72844 1.26691 2.74357 2.69691 3.8145 2.72844 3.83004 3.8145 4.50757 3.83004 4.51144 2.72844 3.83004 2.74357 3.75532 3.83004 4.51144 3.75532 4.44118 4.43947 4.93832 4.47518 4.94413 4.93832 5.31408 4.94413 5.30812 4.47518 4.94413 4.50757 4.94367 4.94413 5.30812 4.94367 5.28683 5.31408 5.56088 5.30812 5.56206 5.56088 5.6918 5.56206 5.70555 5.30812 5.56206 5.28683 5.54204 5.56206 5.70555 5.54204 5.69824 4.50757 4.94367 4.51144 4.92854 4.94367 5.28683 4.92854 5.24512 4.51144 4.92854 4.44118 4.88092 4.92854 5.24512 4.88092 5.17833 5.28683 5.54204 5.24512 5.49033 5.54204 5.69824 5.49033 5.65414 5.24512 5.49033 5.17833 5.3995 5.49033 5.65414 5.3995 5.55769 5.62787 5.66436 5.63322 5.6704 5.66436 5.66029 5.6704 5.66663 5.63322 5.6704 5.64822 5.68762 5.6704 5.66663 5.68762 5.6848 5.66029 5.63454 5.66663 5.64104 5.63454 5.59912 5.64104 5.60578 5.66663 5.64104 5.6848 5.65971 5.64104 5.60578 5.65971 5.62489 5.64822 5.68762 5.66969 5.71319 5.68762 5.6848 5.71319 5.71222 5.66969 5.71319 5.6918 5.74192 5.71319 5.71222 5.74192 5.74422 5.6848 5.65971 5.71222 5.688 5.65971 5.62489 5.688 5.65384 5.71222 5.688 5.74422 5.7215 5.688 5.65384 5.7215 5.68821 5.59912 5.56265 5.60578 5.56949 5.56265 5.53175 5.56949 5.53876 5.60578 5.56949 5.62489 5.58909 5.56949 5.53876 5.58909 5.55882 5.53175 5.51124 5.53876 5.51836 5.51124 5.50406 5.51836 5.51123 5.53876 5.51836 5.55882 5.53876 5.51836 5.51123 5.53876 5.53175 5.62489 5.58909 5.65384 5.61872 5.58909 5.55882 5.61872 5.58909 5.65384 5.61872 5.68821 5.65384 5.61872 5.58909 5.65384 5.62489 5.55882 5.53876 5.58909 5.56949 5.53876 5.53175 5.56949 5.56265 5.58909 5.56949 5.62489 5.60577 5.56949 5.56265 5.60577 5.59911 5.6918 5.74192 5.70555 5.76547 5.74192 5.74422 5.76547 5.77338 5.70555 5.76547 5.69824 5.77122 5.76547 5.77338 5.77122 5.78817 5.74422 5.7215 5.77338 5.7534 5.7215 5.68821 5.7534 5.7215 5.77338 5.7534 5.78817 5.77338 5.7534 5.7215 5.77338 5.74422 5.69824 5.77122 5.65414 5.74136 5.77122 5.78817 5.74136 5.77121 5.65414 5.74136 5.55769 5.65414 5.74136 5.77121 5.65414 5.69824 5.78817 5.77338 5.77121 5.76547 5.77338 5.74422 5.76547 5.74191 5.77121 5.76547 5.69824 5.70555 5.76547 5.74191 5.70555 5.6918 5.68821 5.65384 5.7215 5.688 5.65384 5.62489 5.688 5.6597 5.7215 5.688 5.74422 5.71221 5.688 5.6597 5.71221 5.68479 5.62489 5.60577 5.6597 5.64103 5.60577 5.59911 5.64103 5.63453 5.6597 5.64103 5.68479 5.66662 5.64103 5.63453 5.66662 5.66028 5.74422 5.71221 5.74191 5.71318 5.71221 5.68479 5.71318 5.68761 5.74191 5.71318 5.6918 5.66968 5.71318 5.68761 5.66968 5.64822 5.68479 5.66662 5.68761 5.67039 5.66662 5.66028 5.67039 5.66436 5.68761 5.67039 5.64822 5.63322 5.67039 5.66436 5.63322 5.62787 0 1.26691 0 1.14801 1.26691 2.74357 1.14801 2.6746 0 1.14801 0 1.40224 1.14801 2.6746 1.40224 2.457 2.74357 3.75532 2.6746 3.52632 3.75532 4.44118 3.52632 4.2489 2.6746 3.52632 2.457 3.18267 3.52632 4.2489 3.18267 3.94993 0 1.40224 0 1.74838 1.40224 2.457 1.74838 2.15371 0 1.74838 0 1.34061 1.74838 2.15371 1.34061 2.01348 2.457 3.18267 2.15371 2.99355 3.18267 3.94993 2.99355 3.68977 2.15371 2.99355 2.01348 3.25521 2.99355 3.68977 3.25521 3.59488 4.44118 4.88092 4.2489 4.76859 4.88092 5.17833 4.76859 5.07471 4.2489 4.76859 3.94993 4.54954 4.76